ITEM: TIMESTEP
1000
ITEM: NUMBER OF ATOMS
5
ITEM: BOX BOUNDS pp pp pp
1.0000000000000000e-03 9.9900000000000000e-01
1.0000000000000000e-03 9.9900000000000000e-01
1.0000000000000000e-03 9.9900000000000000e-01
ITEM: ATOMS id type xs ys zs 
1 1 0.272773 0.333666 0.294955 
2 1 0.141527 0.709096 0.943 
3 1 0.684331 0.21513 0.347438 
4 1 0.485986 0.923546 0.656069 
5 1 0.930743 0.477883 0.968724 
ITEM: TIMESTEP
1100
ITEM: NUMBER OF ATOMS
5
ITEM: BOX BOUNDS pp pp pp
1.0000000000000000e-03 9.9900000000000000e-01
1.0000000000000000e-03 9.9900000000000000e-01
1.0000000000000000e-03 9.9900000000000000e-01
ITEM: ATOMS id type xs ys zs 
1 1 0.301079 0.727967 0.0728608 
2 1 0.86999 0.851622 0.443004 
3 1 0.716368 0.65266 0.663355 
4 1 0.58836 0.176654 0.799401 
5 1 1.03956 0.250418 0.231566 
ITEM: TIMESTEP
1200
ITEM: NUMBER OF ATOMS
5
ITEM: BOX BOUNDS pp pp pp
1.0000000000000000e-03 9.9900000000000000e-01
1.0000000000000000e-03 9.9900000000000000e-01
1.0000000000000000e-03 9.9900000000000000e-01
ITEM: ATOMS id type xs ys zs 
1 1 1.04331 0.680742 0.0248413 
2 1 -0.0209239 0.935696 0.135858 
3 1 0.513818 0.179567 0.722296 
4 1 0.28374 0.686186 0.0310644 
5 1 0.695416 0.17713 0.296126 
ITEM: TIMESTEP
1300
ITEM: NUMBER OF ATOMS
5
ITEM: BOX BOUNDS pp pp pp
1.0000000000000000e-03 9.9900000000000000e-01
1.0000000000000000e-03 9.9900000000000000e-01
1.0000000000000000e-03 9.9900000000000000e-01
ITEM: ATOMS id type xs ys zs 
1 1 0.532272 0.248386 1.01608 
2 1 0.762472 0.186321 0.811581 
3 1 0.935968 0.604839 0.805481 
4 1 0.0365978 0.781201 0.424926 
5 1 0.24805 0.838575 0.152118 
ITEM: TIMESTEP
1400
ITEM: NUMBER OF ATOMS
5
ITEM: BOX BOUNDS pp pp pp
1.0000000000000000e-03 9.9900000000000000e-01
1.0000000000000000e-03 9.9900000000000000e-01
1.0000000000000000e-03 9.9900000000000000e-01
ITEM: ATOMS id type xs ys zs 
1 1 0.720055 0.15632 0.622175 
2 1 0.398431 0.592186 0.120802 
3 1 0.333423 0.653346 0.67539 
4 1 0.0904497 0.273359 0.143681 
5 1 0.973001 0.98411 0.648138 
ITEM: TIMESTEP
1500
ITEM: NUMBER OF ATOMS
5
ITEM: BOX BOUNDS pp pp pp
1.0000000000000000e-03 9.9900000000000000e-01
1.0000000000000000e-03 9.9900000000000000e-01
1.0000000000000000e-03 9.9900000000000000e-01
ITEM: ATOMS id type xs ys zs 
1 1 0.446643 0.096048 0.37432 
2 1 0.849772 0.146999 0.570862 
3 1 0.213123 0.712685 0.445538 
4 1 0.8072 0.560104 0.839161 
5 1 0.198622 0.143485 0.980305 
ITEM: TIMESTEP
1600
ITEM: NUMBER OF ATOMS
5
ITEM: BOX BOUNDS pp pp pp
1.0000000000000000e-03 9.9900000000000000e-01
1.0000000000000000e-03 9.9900000000000000e-01
1.0000000000000000e-03 9.9900000000000000e-01
ITEM: ATOMS id type xs ys zs 
1 1 0.685803 0.9652 0.400308 
2 1 0.598839 0.711041 0.833858 
3 1 0.791922 0.34233 0.046061 
4 1 0.2747 0.49355 0.758862 
5 1 0.164097 0.147199 0.171097 
ITEM: TIMESTEP
1700
ITEM: NUMBER OF ATOMS
5
ITEM: BOX BOUNDS pp pp pp
1.0000000000000000e-03 9.9900000000000000e-01
1.0000000000000000e-03 9.9900000000000000e-01
1.0000000000000000e-03 9.9900000000000000e-01
ITEM: ATOMS id type xs ys zs 
1 1 0.678265 0.555388 0.884205 
2 1 0.408207 0.892836 0.248518 
3 1 0.382527 0.826007 0.461203 
4 1 0.886125 0.250396 0.570373 
5 1 0.160235 0.134694 0.0458876 
ITEM: TIMESTEP
1800
ITEM: NUMBER OF ATOMS
5
ITEM: BOX BOUNDS pp pp pp
1.0000000000000000e-03 9.9900000000000000e-01
1.0000000000000000e-03 9.9900000000000000e-01
1.0000000000000000e-03 9.9900000000000000e-01
ITEM: ATOMS id type xs ys zs 
1 1 0.616943 0.829167 0.951142 
2 1 0.580319 0.415439 0.293666 
3 1 0.11768 0.132998 0.351684 
4 1 0.0126904 0.348234 0.990429 
5 1 0.187728 0.933483 0.623265 
ITEM: TIMESTEP
1900
ITEM: NUMBER OF ATOMS
5
ITEM: BOX BOUNDS pp pp pp
1.0000000000000000e-03 9.9900000000000000e-01
1.0000000000000000e-03 9.9900000000000000e-01
1.0000000000000000e-03 9.9900000000000000e-01
ITEM: ATOMS id type xs ys zs 
1 1 0.121446 0.0809077 0.190084 
2 1 0.996316 0.358693 0.765012 
3 1 0.557777 0.572791 0.198721 
4 1 0.729844 0.854967 0.489901 
5 1 0.109976 0.791962 0.566468 
ITEM: TIMESTEP
2000
ITEM: NUMBER OF ATOMS
5
ITEM: BOX BOUNDS pp pp pp
1.0000000000000000e-03 9.9900000000000000e-01
1.0000000000000000e-03 9.9900000000000000e-01
1.0000000000000000e-03 9.9900000000000000e-01
ITEM: ATOMS id type xs ys zs 
1 1 0.485248 0.494453 0.253073 
2 1 0.235087 0.12975 0.529616 
3 1 0.0783648 0.457877 0.153681 
4 1 0.115106 0.68254 0.473771 
5 1 0.601554 0.894702 0.800046 
ITEM: TIMESTEP
2100
ITEM: NUMBER OF ATOMS
5
ITEM: BOX BOUNDS pp pp pp
1.0000000000000000e-03 9.9900000000000000e-01
1.0000000000000000e-03 9.9900000000000000e-01
1.0000000000000000e-03 9.9900000000000000e-01
ITEM: ATOMS id type xs ys zs 
1 1 -0.0361013 0.666338 0.692647 
2 1 0.719667 0.00442593 0.918051 
3 1 0.639694 0.515036 0.937762 
4 1 0.924597 0.44564 0.318604 
5 1 0.267504 0.0278812 0.343123 
ITEM: TIMESTEP
2200
ITEM: NUMBER OF ATOMS
5
ITEM: BOX BOUNDS pp pp pp
1.0000000000000000e-03 9.9900000000000000e-01
1.0000000000000000e-03 9.9900000000000000e-01
1.0000000000000000e-03 9.9900000000000000e-01
ITEM: ATOMS id type xs ys zs 
1 1 0.041622 0.776257 0.754202 
2 1 0.439705 0.311769 0.0448477 
3 1 0.920663 0.495449 0.347284 
4 1 0.771205 0.195305 0.395126 
5 1 0.342165 0.880541 0.668727 
ITEM: TIMESTEP
2300
ITEM: NUMBER OF ATOMS
5
ITEM: BOX BOUNDS pp pp pp
1.0000000000000000e-03 9.9900000000000000e-01
1.0000000000000000e-03 9.9900000000000000e-01
1.0000000000000000e-03 9.9900000000000000e-01
ITEM: ATOMS id type xs ys zs 
1 1 0.562254 0.0703505 0.818686 
2 1 0.900267 0.792805 0.267121 
3 1 0.251277 0.981233 0.70771 
4 1 0.693571 0.508422 0.348314 
5 1 0.107991 0.306511 0.0683557 
ITEM: TIMESTEP
2400
ITEM: NUMBER OF ATOMS
5
ITEM: BOX BOUNDS pp pp pp
1.0000000000000000e-03 9.9900000000000000e-01
1.0000000000000000e-03 9.9900000000000000e-01
1.0000000000000000e-03 9.9900000000000000e-01
ITEM: ATOMS id type xs ys zs 
1 1 0.141157 0.700418 0.932986 
2 1 0.822196 0.816269 0.172983 
3 1 0.970689 0.201497 0.598382 
4 1 0.133944 0.355829 0.434689 
5 1 0.447375 0.585308 0.0711466 
ITEM: TIMESTEP
2500
ITEM: NUMBER OF ATOMS
5
ITEM: BOX BOUNDS pp pp pp
1.0000000000000000e-03 9.9900000000000000e-01
1.0000000000000000e-03 9.9900000000000000e-01
1.0000000000000000e-03 9.9900000000000000e-01
ITEM: ATOMS id type xs ys zs 
1 1 0.669843 0.480355 0.872517 
2 1 0.474583 0.689719 0.327751 
3 1 0.942901 0.392042 0.917502 
4 1 0.16978 0.09143 0.285983 
5 1 0.258253 1.00577 0.806434 
ITEM: TIMESTEP
2600
ITEM: NUMBER OF ATOMS
5
ITEM: BOX BOUNDS pp pp pp
1.0000000000000000e-03 9.9900000000000000e-01
1.0000000000000000e-03 9.9900000000000000e-01
1.0000000000000000e-03 9.9900000000000000e-01
ITEM: ATOMS id type xs ys zs 
1 1 0.0865973 0.324452 0.0432777 
2 1 0.547983 0.683147 0.647061 
3 1 0.959422 0.921939 0.0606071 
4 1 0.663619 0.600657 0.572679 
5 1 0.257739 0.129127 0.886561 
ITEM: TIMESTEP
2700
ITEM: NUMBER OF ATOMS
5
ITEM: BOX BOUNDS pp pp pp
1.0000000000000000e-03 9.9900000000000000e-01
1.0000000000000000e-03 9.9900000000000000e-01
1.0000000000000000e-03 9.9900000000000000e-01
ITEM: ATOMS id type xs ys zs 
1 1 0.0959032 0.0547049 0.828919 
2 1 0.354989 0.82728 0.24039 
3 1 0.714699 0.82784 0.627575 
4 1 0.99599 0.430244 0.135999 
5 1 0.353778 0.519252 0.377304 
ITEM: TIMESTEP
2800
ITEM: NUMBER OF ATOMS
5
ITEM: BOX BOUNDS pp pp pp
1.0000000000000000e-03 9.9900000000000000e-01
1.0000000000000000e-03 9.9900000000000000e-01
1.0000000000000000e-03 9.9900000000000000e-01
ITEM: ATOMS id type xs ys zs 
1 1 0.870677 0.420829 -0.00377062 
2 1 0.880862 0.718449 0.83091 
3 1 0.388747 0.162763 0.680121 
4 1 0.463739 0.911227 0.266258 
5 1 0.911335 0.446054 0.436668 
ITEM: TIMESTEP
2900
ITEM: NUMBER OF ATOMS
5
ITEM: BOX BOUNDS pp pp pp
1.0000000000000000e-03 9.9900000000000000e-01
1.0000000000000000e-03 9.9900000000000000e-01
1.0000000000000000e-03 9.9900000000000000e-01
ITEM: ATOMS id type xs ys zs 
1 1 0.764375 0.645923 0.295745 
2 1 0.806561 0.863258 0.586314 
3 1 0.300056 0.263133 -0.041989 
4 1 0.544845 0.715735 0.795213 
5 1 0.0995238 0.171272 0.574904 
ITEM: TIMESTEP
3000
ITEM: NUMBER OF ATOMS
5
ITEM: BOX BOUNDS pp pp pp
1.0000000000000000e-03 9.9900000000000000e-01
1.0000000000000000e-03 9.9900000000000000e-01
1.0000000000000000e-03 9.9900000000000000e-01
ITEM: ATOMS id type xs ys zs 
1 1 0.0153039 0.8211 0.634813 
2 1 0.105367 0.324462 0.967373 
3 1 0.710335 0.63858 0.523888 
4 1 0.181978 0.89248 0.906831 
5 1 0.502375 0.9827 0.177282 
ITEM: TIMESTEP
3100
ITEM: NUMBER OF ATOMS
5
ITEM: BOX BOUNDS pp pp pp
1.0000000000000000e-03 9.9900000000000000e-01
1.0000000000000000e-03 9.9900000000000000e-01
1.0000000000000000e-03 9.9900000000000000e-01
ITEM: ATOMS id type xs ys zs 
1 1 0.468468 0.761341 0.468347 
2 1 0.849153 0.137298 0.186183 
3 1 0.337516 0.861677 0.823768 
4 1 0.686014 0.379373 0.65293 
5 1 0.174209 0.519633 0.0789584 
ITEM: TIMESTEP
3200
ITEM: NUMBER OF ATOMS
5
ITEM: BOX BOUNDS pp pp pp
1.0000000000000000e-03 9.9900000000000000e-01
1.0000000000000000e-03 9.9900000000000000e-01
1.0000000000000000e-03 9.9900000000000000e-01
ITEM: ATOMS id type xs ys zs 
1 1 0.997632 0.259219 0.151122 
2 1 0.560382 0.176952 0.377231 
3 1 0.445063 0.751235 0.318225 
4 1 0.427797 0.913346 0.757893 
5 1 0.0844863 0.558569 0.605716 
ITEM: TIMESTEP
3300
ITEM: NUMBER OF ATOMS
5
ITEM: BOX BOUNDS pp pp pp
1.0000000000000000e-03 9.9900000000000000e-01
1.0000000000000000e-03 9.9900000000000000e-01
1.0000000000000000e-03 9.9900000000000000e-01
ITEM: ATOMS id type xs ys zs 
1 1 0.497435 0.353846 0.971195 
2 1 0.16854 0.99231 0.0493682 
3 1 0.938454 0.760124 0.0871997 
4 1 0.186782 0.0453623 0.436235 
5 1 0.724149 0.507679 0.666189 
ITEM: TIMESTEP
3400
ITEM: NUMBER OF ATOMS
5
ITEM: BOX BOUNDS pp pp pp
1.0000000000000000e-03 9.9900000000000000e-01
1.0000000000000000e-03 9.9900000000000000e-01
1.0000000000000000e-03 9.9900000000000000e-01
ITEM: ATOMS id type xs ys zs 
1 1 0.84784 0.0996536 0.678962 
2 1 0.718897 0.445557 0.705058 
3 1 0.473065 0.800397 0.0937933 
4 1 0.40351 0.339818 0.572081 
5 1 0.0720473 0.973895 0.160292 
ITEM: TIMESTEP
3500
ITEM: NUMBER OF ATOMS
5
ITEM: BOX BOUNDS pp pp pp
1.0000000000000000e-03 9.9900000000000000e-01
1.0000000000000000e-03 9.9900000000000000e-01
1.0000000000000000e-03 9.9900000000000000e-01
ITEM: ATOMS id type xs ys zs 
1 1 0.267423 0.760519 0.0916467 
2 1 -0.00650352 0.204454 0.578127 
3 1 0.339439 0.41241 0.792354 
4 1 1.08869 0.91842 0.446628 
5 1 0.826312 0.363518 0.301431 
ITEM: TIMESTEP
3600
ITEM: NUMBER OF ATOMS
5
ITEM: BOX BOUNDS pp pp pp
1.0000000000000000e-03 9.9900000000000000e-01
1.0000000000000000e-03 9.9900000000000000e-01
1.0000000000000000e-03 9.9900000000000000e-01
ITEM: ATOMS id type xs ys zs 
1 1 0.690041 0.0276157 0.723201 
2 1 0.259028 0.0435523 0.309481 
3 1 0.684528 0.581038 0.987097 
4 1 0.701824 0.633086 0.410716 
5 1 0.179939 0.374029 0.779692 
ITEM: TIMESTEP
3700
ITEM: NUMBER OF ATOMS
5
ITEM: BOX BOUNDS pp pp pp
1.0000000000000000e-03 9.9900000000000000e-01
1.0000000000000000e-03 9.9900000000000000e-01
1.0000000000000000e-03 9.9900000000000000e-01
ITEM: ATOMS id type xs ys zs 
1 1 0.380372 0.250779 0.189074 
2 1 0.975305 0.511663 0.702457 
3 1 0.769236 0.435237 0.0404093 
4 1 0.206461 0.884417 0.655145 
5 1 0.183987 0.577225 0.6231 
ITEM: TIMESTEP
3800
ITEM: NUMBER OF ATOMS
5
ITEM: BOX BOUNDS pp pp pp
1.0000000000000000e-03 9.9900000000000000e-01
1.0000000000000000e-03 9.9900000000000000e-01
1.0000000000000000e-03 9.9900000000000000e-01
ITEM: ATOMS id type xs ys zs 
1 1 0.732446 0.634131 0.417022 
2 1 0.857723 0.181132 0.980532 
3 1 0.144927 0.0647352 0.574901 
4 1 0.319838 0.154866 0.328692 
5 1 0.460427 0.624457 0.90904 
ITEM: TIMESTEP
3900
ITEM: NUMBER OF ATOMS
5
ITEM: BOX BOUNDS pp pp pp
1.0000000000000000e-03 9.9900000000000000e-01
1.0000000000000000e-03 9.9900000000000000e-01
1.0000000000000000e-03 9.9900000000000000e-01
ITEM: ATOMS id type xs ys zs 
1 1 0.294131 0.0250665 0.511598 
2 1 0.45558 0.0327478 0.830283 
3 1 0.910259 0.25812 0.308106 
4 1 0.618295 0.732067 0.522786 
5 1 0.237094 0.611319 0.0374138 
ITEM: TIMESTEP
4000
ITEM: NUMBER OF ATOMS
5
ITEM: BOX BOUNDS pp pp pp
1.0000000000000000e-03 9.9900000000000000e-01
1.0000000000000000e-03 9.9900000000000000e-01
1.0000000000000000e-03 9.9900000000000000e-01
ITEM: ATOMS id type xs ys zs 
1 1 0.381061 0.0431764 0.238297 
2 1 0.632323 0.653248 0.692165 
3 1 0.5682 0.0994437 0.135432 
4 1 0.142387 0.442723 0.305735 
5 1 0.79139 0.42073 0.838557 
ITEM: TIMESTEP
4100
ITEM: NUMBER OF ATOMS
5
ITEM: BOX BOUNDS pp pp pp
1.0000000000000000e-03 9.9900000000000000e-01
1.0000000000000000e-03 9.9900000000000000e-01
1.0000000000000000e-03 9.9900000000000000e-01
ITEM: ATOMS id type xs ys zs 
1 1 0.257636 0.59988 0.0186973 
2 1 0.753031 0.116731 0.429251 
3 1 0.740971 0.209269 0.888385 
4 1 0.636402 0.030882 0.20469 
5 1 0.127321 0.70256 0.669163 
ITEM: TIMESTEP
4200
ITEM: NUMBER OF ATOMS
5
ITEM: BOX BOUNDS pp pp pp
1.0000000000000000e-03 9.9900000000000000e-01
1.0000000000000000e-03 9.9900000000000000e-01
1.0000000000000000e-03 9.9900000000000000e-01
ITEM: ATOMS id type xs ys zs 
1 1 -0.00121396 0.642555 0.752378 
2 1 0.717044 0.403466 0.31991 
3 1 0.276326 0.168378 0.0186335 
4 1 0.467104 0.695904 0.927 
5 1 0.0561009 0.749017 0.192264 
ITEM: TIMESTEP
4300
ITEM: NUMBER OF ATOMS
5
ITEM: BOX BOUNDS pp pp pp
1.0000000000000000e-03 9.9900000000000000e-01
1.0000000000000000e-03 9.9900000000000000e-01
1.0000000000000000e-03 9.9900000000000000e-01
ITEM: ATOMS id type xs ys zs 
1 1 0.479794 0.261916 0.609653 
2 1 0.429331 0.566291 0.549613 
3 1 0.135907 0.253291 0.835287 
4 1 0.711948 0.798846 -0.02178 
5 1 0.75838 0.778977 0.237414 
ITEM: TIMESTEP
4400
ITEM: NUMBER OF ATOMS
5
ITEM: BOX BOUNDS pp pp pp
1.0000000000000000e-03 9.9900000000000000e-01
1.0000000000000000e-03 9.9900000000000000e-01
1.0000000000000000e-03 9.9900000000000000e-01
ITEM: ATOMS id type xs ys zs 
1 1 0.335541 0.950215 0.522974 
2 1 0.828137 0.216911 0.0780963 
3 1 0.631726 0.615765 0.483764 
4 1 0.341565 0.637413 0.836663 
5 1 0.378391 0.239017 0.28869 
ITEM: TIMESTEP
4500
ITEM: NUMBER OF ATOMS
5
ITEM: BOX BOUNDS pp pp pp
1.0000000000000000e-03 9.9900000000000000e-01
1.0000000000000000e-03 9.9900000000000000e-01
1.0000000000000000e-03 9.9900000000000000e-01
ITEM: ATOMS id type xs ys zs 
1 1 0.668194 0.537867 0.260411 
2 1 0.0279958 0.0619759 0.371669 
3 1 0.934985 0.233642 0.783722 
4 1 0.312072 0.0801291 0.667416 
5 1 0.572114 0.745707 0.126968 
ITEM: TIMESTEP
4600
ITEM: NUMBER OF ATOMS
5
ITEM: BOX BOUNDS pp pp pp
1.0000000000000000e-03 9.9900000000000000e-01
1.0000000000000000e-03 9.9900000000000000e-01
1.0000000000000000e-03 9.9900000000000000e-01
ITEM: ATOMS id type xs ys zs 
1 1 0.302599 0.904429 0.610597 
2 1 0.0879794 0.367417 0.168786 
3 1 0.681799 0.453653 0.104376 
4 1 0.578626 0.764224 0.626362 
5 1 0.864358 0.169598 0.700065 
ITEM: TIMESTEP
4700
ITEM: NUMBER OF ATOMS
5
ITEM: BOX BOUNDS pp pp pp
1.0000000000000000e-03 9.9900000000000000e-01
1.0000000000000000e-03 9.9900000000000000e-01
1.0000000000000000e-03 9.9900000000000000e-01
ITEM: ATOMS id type xs ys zs 
1 1 0.755379 0.833623 0.726704 
2 1 0.748989 0.345207 0.64223 
3 1 0.21327 0.447955 0.225873 
4 1 0.184159 0.750675 0.223296 
5 1 0.613563 0.281861 0.392083 
ITEM: TIMESTEP
4800
ITEM: NUMBER OF ATOMS
5
ITEM: BOX BOUNDS pp pp pp
1.0000000000000000e-03 9.9900000000000000e-01
1.0000000000000000e-03 9.9900000000000000e-01
1.0000000000000000e-03 9.9900000000000000e-01
ITEM: ATOMS id type xs ys zs 
1 1 0.12948 0.937064 0.429769 
2 1 0.894113 0.410509 0.786535 
3 1 0.52437 0.578915 0.105801 
4 1 0.333349 0.686745 1.03623 
5 1 0.634048 0.0460888 0.85185 
ITEM: TIMESTEP
4900
ITEM: NUMBER OF ATOMS
5
ITEM: BOX BOUNDS pp pp pp
1.0000000000000000e-03 9.9900000000000000e-01
1.0000000000000000e-03 9.9900000000000000e-01
1.0000000000000000e-03 9.9900000000000000e-01
ITEM: ATOMS id type xs ys zs 
1 1 0.2413 0.923628 0.426886 
2 1 0.297688 0.519738 0.264751 
3 1 0.765015 0.239492 0.710107 
4 1 0.906212 0.138352 0.118911 
5 1 0.305144 0.838111 0.689532 
ITEM: TIMESTEP
5000
ITEM: NUMBER OF ATOMS
5
ITEM: BOX BOUNDS pp pp pp
1.0000000000000000e-03 9.9900000000000000e-01
1.0000000000000000e-03 9.9900000000000000e-01
1.0000000000000000e-03 9.9900000000000000e-01
ITEM: ATOMS id type xs ys zs 
1 1 0.902213 0.752455 0.254129 
2 1 0.637744 0.818965 0.749151 
3 1 0.35346 0.541113 0.671145 
4 1 0.960026 0.534667 0.52368 
5 1 0.661918 0.012121 0.0120814 
ITEM: TIMESTEP
5100
ITEM: NUMBER OF ATOMS
5
ITEM: BOX BOUNDS pp pp pp
1.0000000000000000e-03 9.9900000000000000e-01
1.0000000000000000e-03 9.9900000000000000e-01
1.0000000000000000e-03 9.9900000000000000e-01
ITEM: ATOMS id type xs ys zs 
1 1 0.536711 0.508071 0.49541 
2 1 0.14694 0.965095 0.401313 
3 1 0.610681 0.404025 0.649751 
4 1 0.305992 0.757265 0.764692 
5 1 0.915035 0.0248652 0.899021 
ITEM: TIMESTEP
5200
ITEM: NUMBER OF ATOMS
5
ITEM: BOX BOUNDS pp pp pp
1.0000000000000000e-03 9.9900000000000000e-01
1.0000000000000000e-03 9.9900000000000000e-01
1.0000000000000000e-03 9.9900000000000000e-01
ITEM: ATOMS id type xs ys zs 
1 1 0.955309 0.412932 0.987105 
2 1 0.541549 0.832118 0.57686 
3 1 0.756985 0.752512 0.00545572 
4 1 0.228867 0.46821 0.572201 
5 1 0.0326491 0.193549 0.0685658 
ITEM: TIMESTEP
5300
ITEM: NUMBER OF ATOMS
5
ITEM: BOX BOUNDS pp pp pp
1.0000000000000000e-03 9.9900000000000000e-01
1.0000000000000000e-03 9.9900000000000000e-01
1.0000000000000000e-03 9.9900000000000000e-01
ITEM: ATOMS id type xs ys zs 
1 1 0.831831 0.942775 0.0444707 
2 1 0.500717 0.552584 0.849615 
3 1 0.119479 0.477714 0.626076 
4 1 0.665558 0.770692 0.390249 
5 1 0.397775 0.915556 0.299776 
ITEM: TIMESTEP
5400
ITEM: NUMBER OF ATOMS
5
ITEM: BOX BOUNDS pp pp pp
1.0000000000000000e-03 9.9900000000000000e-01
1.0000000000000000e-03 9.9900000000000000e-01
1.0000000000000000e-03 9.9900000000000000e-01
ITEM: ATOMS id type xs ys zs 
1 1 0.732675 0.408946 0.584343 
2 1 0.466455 0.553831 0.0578383 
3 1 0.324011 0.0139229 0.22871 
4 1 0.00655717 0.931007 0.442114 
5 1 0.985662 0.751615 0.897181 
ITEM: TIMESTEP
5500
ITEM: NUMBER OF ATOMS
5
ITEM: BOX BOUNDS pp pp pp
1.0000000000000000e-03 9.9900000000000000e-01
1.0000000000000000e-03 9.9900000000000000e-01
1.0000000000000000e-03 9.9900000000000000e-01
ITEM: ATOMS id type xs ys zs 
1 1 1.03719 0.39693 0.706878 
2 1 0.664353 0.929568 0.746898 
3 1 0.307198 0.266775 0.190167 
4 1 0.584016 0.448566 0.25277 
5 1 0.922606 0.617482 0.313473 
ITEM: TIMESTEP
5600
ITEM: NUMBER OF ATOMS
5
ITEM: BOX BOUNDS pp pp pp
1.0000000000000000e-03 9.9900000000000000e-01
1.0000000000000000e-03 9.9900000000000000e-01
1.0000000000000000e-03 9.9900000000000000e-01
ITEM: ATOMS id type xs ys zs 
1 1 0.637986 0.719944 0.363653 
2 1 0.11003 0.560455 0.70775 
3 1 0.948218 0.369571 0.854513 
4 1 0.232057 0.0780674 0.199141 
5 1 0.587069 0.931283 0.0851292 
ITEM: TIMESTEP
5700
ITEM: NUMBER OF ATOMS
5
ITEM: BOX BOUNDS pp pp pp
1.0000000000000000e-03 9.9900000000000000e-01
1.0000000000000000e-03 9.9900000000000000e-01
1.0000000000000000e-03 9.9900000000000000e-01
ITEM: ATOMS id type xs ys zs 
1 1 0.37191 0.224251 0.619358 
2 1 0.964472 0.6215 0.105923 
3 1 0.85333 0.998211 0.660719 
4 1 0.561022 0.0561414 0.185315 
5 1 0.764625 0.759218 0.638872 
ITEM: TIMESTEP
5800
ITEM: NUMBER OF ATOMS
5
ITEM: BOX BOUNDS pp pp pp
1.0000000000000000e-03 9.9900000000000000e-01
1.0000000000000000e-03 9.9900000000000000e-01
1.0000000000000000e-03 9.9900000000000000e-01
ITEM: ATOMS id type xs ys zs 
1 1 0.994853 0.264193 0.347029 
2 1 0.461286 0.0390698 0.746881 
3 1 0.393588 0.200843 0.0102256 
4 1 0.871517 0.699405 0.308904 
5 1 0.794118 0.45581 0.797146 
ITEM: TIMESTEP
5900
ITEM: NUMBER OF ATOMS
5
ITEM: BOX BOUNDS pp pp pp
1.0000000000000000e-03 9.9900000000000000e-01
1.0000000000000000e-03 9.9900000000000000e-01
1.0000000000000000e-03 9.9900000000000000e-01
ITEM: ATOMS id type xs ys zs 
1 1 0.791455 0.818836 0.766538 
2 1 0.631553 0.0605729 0.197795 
3 1 0.246144 0.735516 0.514213 
4 1 1.01367 0.457704 0.564085 
5 1 0.832538 0.586692 0.167555 
ITEM: TIMESTEP
6000
ITEM: NUMBER OF ATOMS
5
ITEM: BOX BOUNDS pp pp pp
1.0000000000000000e-03 9.9900000000000000e-01
1.0000000000000000e-03 9.9900000000000000e-01
1.0000000000000000e-03 9.9900000000000000e-01
ITEM: ATOMS id type xs ys zs 
1 1 0.904625 0.609289 0.51235 
2 1 0.180067 0.222548 0.0803975 
3 1 0.390069 0.920073 0.131422 
4 1 0.200444 0.62867 0.843447 
5 1 0.840156 0.27874 0.642569 
ITEM: TIMESTEP
6100
ITEM: NUMBER OF ATOMS
5
ITEM: BOX BOUNDS pp pp pp
1.0000000000000000e-03 9.9900000000000000e-01
1.0000000000000000e-03 9.9900000000000000e-01
1.0000000000000000e-03 9.9900000000000000e-01
ITEM: ATOMS id type xs ys zs 
1 1 0.569738 0.820655 0.655143 
2 1 0.952719 0.677109 0.234906 
3 1 0.936682 0.178081 0.942846 
4 1 0.357082 0.518257 0.381898 
5 1 0.699139 0.465219 0.995393 
ITEM: TIMESTEP
6200
ITEM: NUMBER OF ATOMS
5
ITEM: BOX BOUNDS pp pp pp
1.0000000000000000e-03 9.9900000000000000e-01
1.0000000000000000e-03 9.9900000000000000e-01
1.0000000000000000e-03 9.9900000000000000e-01
ITEM: ATOMS id type xs ys zs 
1 1 0.0989371 0.537516 0.405627 
2 1 0.0954764 0.731805 0.82133 
3 1 0.0940997 0.229667 0.333176 
4 1 0.531048 0.295297 0.631765 
5 1 0.695799 0.865036 0.0182884 
ITEM: TIMESTEP
6300
ITEM: NUMBER OF ATOMS
5
ITEM: BOX BOUNDS pp pp pp
1.0000000000000000e-03 9.9900000000000000e-01
1.0000000000000000e-03 9.9900000000000000e-01
1.0000000000000000e-03 9.9900000000000000e-01
ITEM: ATOMS id type xs ys zs 
1 1 0.31576 0.0347936 0.0193311 
2 1 0.814691 0.941947 0.210297 
3 1 0.473834 0.399191 0.662454 
4 1 0.92227 0.708723 0.458389 
5 1 -0.0111952 0.574666 0.859715 
ITEM: TIMESTEP
6400
ITEM: NUMBER OF ATOMS
5
ITEM: BOX BOUNDS pp pp pp
1.0000000000000000e-03 9.9900000000000000e-01
1.0000000000000000e-03 9.9900000000000000e-01
1.0000000000000000e-03 9.9900000000000000e-01
ITEM: ATOMS id type xs ys zs 
1 1 0.887535 0.902822 1.02346 
2 1 0.708174 0.486768 0.0517904 
3 1 0.395255 0.384207 0.992659 
4 1 0.182188 0.130646 0.516116 
5 1 0.342208 0.754879 0.626157 
ITEM: TIMESTEP
6500
ITEM: NUMBER OF ATOMS
5
ITEM: BOX BOUNDS pp pp pp
1.0000000000000000e-03 9.9900000000000000e-01
1.0000000000000000e-03 9.9900000000000000e-01
1.0000000000000000e-03 9.9900000000000000e-01
ITEM: ATOMS id type xs ys zs 
1 1 0.825066 0.254594 0.103697 
2 1 0.239212 0.928286 0.632796 
3 1 0.375759 0.556861 0.37087 
4 1 0.320524 0.220522 0.476705 
5 1 0.754799 0.699058 0.626119 
ITEM: TIMESTEP
6600
ITEM: NUMBER OF ATOMS
5
ITEM: BOX BOUNDS pp pp pp
1.0000000000000000e-03 9.9900000000000000e-01
1.0000000000000000e-03 9.9900000000000000e-01
1.0000000000000000e-03 9.9900000000000000e-01
ITEM: ATOMS id type xs ys zs 
1 1 0.946306 0.620694 0.343687 
2 1 0.963965 0.884383 0.834114 
3 1 0.282458 0.283545 0.35318 
4 1 0.764258 0.649664 0.52181 
5 1 0.558374 0.221036 0.157396 
ITEM: TIMESTEP
6700
ITEM: NUMBER OF ATOMS
5
ITEM: BOX BOUNDS pp pp pp
1.0000000000000000e-03 9.9900000000000000e-01
1.0000000000000000e-03 9.9900000000000000e-01
1.0000000000000000e-03 9.9900000000000000e-01
ITEM: ATOMS id type xs ys zs 
1 1 0.0680919 0.78461 0.939364 
2 1 0.682336 0.185134 0.909653 
3 1 0.275404 0.268038 0.20126 
4 1 0.587787 0.771754 0.512529 
5 1 0.901741 0.649784 0.64738 
ITEM: TIMESTEP
6800
ITEM: NUMBER OF ATOMS
5
ITEM: BOX BOUNDS pp pp pp
1.0000000000000000e-03 9.9900000000000000e-01
1.0000000000000000e-03 9.9900000000000000e-01
1.0000000000000000e-03 9.9900000000000000e-01
ITEM: ATOMS id type xs ys zs 
1 1 0.587939 0.654879 0.81105 
2 1 0.0559332 0.995422 0.146912 
3 1 0.674785 0.36625 0.0620033 
4 1 0.200957 0.0643498 0.653423 
5 1 -0.00425393 0.57842 0.536799 
ITEM: TIMESTEP
6900
ITEM: NUMBER OF ATOMS
5
ITEM: BOX BOUNDS pp pp pp
1.0000000000000000e-03 9.9900000000000000e-01
1.0000000000000000e-03 9.9900000000000000e-01
1.0000000000000000e-03 9.9900000000000000e-01
ITEM: ATOMS id type xs ys zs 
1 1 0.740507 0.312376 0.259578 
2 1 0.248774 0.752672 0.497519 
3 1 0.191277 -0.030079 0.837518 
4 1 0.030436 0.615072 0.53468 
5 1 0.304366 0.00927964 0.0808916 
ITEM: TIMESTEP
7000
ITEM: NUMBER OF ATOMS
5
ITEM: BOX BOUNDS pp pp pp
1.0000000000000000e-03 9.9900000000000000e-01
1.0000000000000000e-03 9.9900000000000000e-01
1.0000000000000000e-03 9.9900000000000000e-01
ITEM: ATOMS id type xs ys zs 
1 1 0.145746 0.241243 0.748031 
2 1 0.250464 0.325541 0.391313 
3 1 0.805644 0.621178 0.775416 
4 1 0.792349 0.470516 0.0637043 
5 1 0.521157 1.00084 0.231723 
ITEM: TIMESTEP
7100
ITEM: NUMBER OF ATOMS
5
ITEM: BOX BOUNDS pp pp pp
1.0000000000000000e-03 9.9900000000000000e-01
1.0000000000000000e-03 9.9900000000000000e-01
1.0000000000000000e-03 9.9900000000000000e-01
ITEM: ATOMS id type xs ys zs 
1 1 0.783641 0.961282 0.755382 
2 1 0.707728 0.842347 0.450275 
3 1 0.420351 0.031544 0.882062 
4 1 0.11746 0.475323 0.798188 
5 1 0.48618 0.348824 0.324279 
ITEM: TIMESTEP
7200
ITEM: NUMBER OF ATOMS
5
ITEM: BOX BOUNDS pp pp pp
1.0000000000000000e-03 9.9900000000000000e-01
1.0000000000000000e-03 9.9900000000000000e-01
1.0000000000000000e-03 9.9900000000000000e-01
ITEM: ATOMS id type xs ys zs 
1 1 0.0576824 0.738299 0.744986 
2 1 0.76021 0.104483 0.354432 
3 1 0.555552 0.538288 0.175363 
4 1 0.820578 0.275208 0.922878 
5 1 0.321338 0.00304282 0.0125276 
ITEM: TIMESTEP
7300
ITEM: NUMBER OF ATOMS
5
ITEM: BOX BOUNDS pp pp pp
1.0000000000000000e-03 9.9900000000000000e-01
1.0000000000000000e-03 9.9900000000000000e-01
1.0000000000000000e-03 9.9900000000000000e-01
ITEM: ATOMS id type xs ys zs 
1 1 0.404036 0.936791 0.285949 
2 1 0.682758 0.38108 0.656144 
3 1 0.172536 0.472867 0.936288 
4 1 0.431242 0.0181125 0.916438 
5 1 0.824788 0.850471 0.415366 
ITEM: TIMESTEP
7400
ITEM: NUMBER OF ATOMS
5
ITEM: BOX BOUNDS pp pp pp
1.0000000000000000e-03 9.9900000000000000e-01
1.0000000000000000e-03 9.9900000000000000e-01
1.0000000000000000e-03 9.9900000000000000e-01
ITEM: ATOMS id type xs ys zs 
1 1 0.593301 0.977079 0.388608 
2 1 0.473727 0.666834 0.264275 
3 1 0.147143 0.52492 0.788062 
4 1 0.463442 0.393529 0.0046675 
5 1 0.837747 0.0969592 0.764574 
ITEM: TIMESTEP
7500
ITEM: NUMBER OF ATOMS
5
ITEM: BOX BOUNDS pp pp pp
1.0000000000000000e-03 9.9900000000000000e-01
1.0000000000000000e-03 9.9900000000000000e-01
1.0000000000000000e-03 9.9900000000000000e-01
ITEM: ATOMS id type xs ys zs 
1 1 0.015057 0.118738 0.89258 
2 1 0.285528 0.769642 0.407599 
3 1 0.524992 0.843187 0.785779 
4 1 0.780484 0.637795 0.923374 
5 1 0.909299 0.289958 0.200855 
ITEM: TIMESTEP
7600
ITEM: NUMBER OF ATOMS
5
ITEM: BOX BOUNDS pp pp pp
1.0000000000000000e-03 9.9900000000000000e-01
1.0000000000000000e-03 9.9900000000000000e-01
1.0000000000000000e-03 9.9900000000000000e-01
ITEM: ATOMS id type xs ys zs 
1 1 0.338365 0.665214 0.956384 
2 1 1.0339 0.0231423 0.606415 
3 1 0.591228 0.625283 0.871208 
4 1 1.02466 0.337227 0.273491 
5 1 0.527216 0.00845481 0.502688 
ITEM: TIMESTEP
7700
ITEM: NUMBER OF ATOMS
5
ITEM: BOX BOUNDS pp pp pp
1.0000000000000000e-03 9.9900000000000000e-01
1.0000000000000000e-03 9.9900000000000000e-01
1.0000000000000000e-03 9.9900000000000000e-01
ITEM: ATOMS id type xs ys zs 
1 1 0.279374 0.893648 0.460167 
2 1 0.788713 0.566341 0.875298 
3 1 0.161567 0.243857 0.42302 
4 1 0.655471 0.143574 0.503273 
5 1 0.630235 0.811901 -0.051572 
ITEM: TIMESTEP
7800
ITEM: NUMBER OF ATOMS
5
ITEM: BOX BOUNDS pp pp pp
1.0000000000000000e-03 9.9900000000000000e-01
1.0000000000000000e-03 9.9900000000000000e-01
1.0000000000000000e-03 9.9900000000000000e-01
ITEM: ATOMS id type xs ys zs 
1 1 0.86494 0.829335 0.671468 
2 1 0.27627 0.142396 0.977706 
3 1 0.79861 0.311507 0.289119 
4 1 0.0789914 0.660835 0.328358 
5 1 0.496549 0.715249 0.943536 
ITEM: TIMESTEP
7900
ITEM: NUMBER OF ATOMS
5
ITEM: BOX BOUNDS pp pp pp
1.0000000000000000e-03 9.9900000000000000e-01
1.0000000000000000e-03 9.9900000000000000e-01
1.0000000000000000e-03 9.9900000000000000e-01
ITEM: ATOMS id type xs ys zs 
1 1 0.632939 0.129542 0.647682 
2 1 0.583425 0.673284 0.0871696 
3 1 0.0140462 0.88104 0.955853 
4 1 0.200207 0.576734 0.158951 
5 1 0.0847424 0.398722 0.360532 
ITEM: TIMESTEP
8000
ITEM: NUMBER OF ATOMS
5
ITEM: BOX BOUNDS pp pp pp
1.0000000000000000e-03 9.9900000000000000e-01
1.0000000000000000e-03 9.9900000000000000e-01
1.0000000000000000e-03 9.9900000000000000e-01
ITEM: ATOMS id type xs ys zs 
1 1 0.947632 0.50501 0.900316 
2 1 0.494602 0.785665 0.887398 
3 1 0.0882693 0.082422 0.466722 
4 1 0.352422 0.276748 0.674815 
5 1 0.632435 1.00948 0.280936 
ITEM: TIMESTEP
8100
ITEM: NUMBER OF ATOMS
5
ITEM: BOX BOUNDS pp pp pp
1.0000000000000000e-03 9.9900000000000000e-01
1.0000000000000000e-03 9.9900000000000000e-01
1.0000000000000000e-03 9.9900000000000000e-01
ITEM: ATOMS id type xs ys zs 
1 1 0.722123 0.758083 0.659774 
2 1 0.896416 0.0455744 0.0874836 
3 1 0.457987 0.425598 0.135948 
4 1 0.169125 -0.0617125 0.976972 
5 1 0.26971 0.491778 0.350008 
ITEM: TIMESTEP
8200
ITEM: NUMBER OF ATOMS
5
ITEM: BOX BOUNDS pp pp pp
1.0000000000000000e-03 9.9900000000000000e-01
1.0000000000000000e-03 9.9900000000000000e-01
1.0000000000000000e-03 9.9900000000000000e-01
ITEM: ATOMS id type xs ys zs 
1 1 0.232799 0.499251 0.586219 
2 1 0.806595 0.224467 0.951323 
3 1 0.420788 0.863704 0.453278 
4 1 0.821618 0.64416 0.147242 
5 1 0.23356 0.427739 0.0721242 
ITEM: TIMESTEP
8300
ITEM: NUMBER OF ATOMS
5
ITEM: BOX BOUNDS pp pp pp
1.0000000000000000e-03 9.9900000000000000e-01
1.0000000000000000e-03 9.9900000000000000e-01
1.0000000000000000e-03 9.9900000000000000e-01
ITEM: ATOMS id type xs ys zs 
1 1 0.39535 0.607919 0.750304 
2 1 0.982683 0.414103 0.97954 
3 1 0.598227 0.633432 0.413008 
4 1 0.574566 0.189361 0.86125 
5 1 0.964534 0.814506 0.206085 
ITEM: TIMESTEP
8400
ITEM: NUMBER OF ATOMS
5
ITEM: BOX BOUNDS pp pp pp
1.0000000000000000e-03 9.9900000000000000e-01
1.0000000000000000e-03 9.9900000000000000e-01
1.0000000000000000e-03 9.9900000000000000e-01
ITEM: ATOMS id type xs ys zs 
1 1 0.46062 0.665975 0.69492 
2 1 0.287959 0.172845 0.829981 
3 1 0.888512 0.697767 0.26927 
4 1 0.0821016 0.929587 0.394965 
5 1 0.796167 0.193147 0.0210514 
ITEM: TIMESTEP
8500
ITEM: NUMBER OF ATOMS
5
ITEM: BOX BOUNDS pp pp pp
1.0000000000000000e-03 9.9900000000000000e-01
1.0000000000000000e-03 9.9900000000000000e-01