ITEM: TIMESTEP
1000
ITEM: NUMBER OF ATOMS
3
ITEM: BOX BOUNDS pp pp pp
1.0000000000000000e-03 9.9900000000000000e-01
1.0000000000000000e-03 9.9900000000000000e-01
1.0000000000000000e-03 9.9900000000000000e-01
ITEM: ATOMS id type xs ys zs 
1 1 0.43757 0.827647 0.636966 
2 1 0.961992 0.269405 0.206777 
3 1 0.740713 0.519449 0.687954 
ITEM: TIMESTEP
1100
ITEM: NUMBER OF ATOMS
3
ITEM: BOX BOUNDS pp pp pp
1.0000000000000000e-03 9.9900000000000000e-01
1.0000000000000000e-03 9.9900000000000000e-01
1.0000000000000000e-03 9.9900000000000000e-01
ITEM: ATOMS id type xs ys zs 
1 1 0.320982 0.879644 0.514772 
2 1 0.983492 0.252686 0.883265 
3 1 0.835802 0.484171 0.133661 
ITEM: TIMESTEP
1200
ITEM: NUMBER OF ATOMS
3
ITEM: BOX BOUNDS pp pp pp
1.0000000000000000e-03 9.9900000000000000e-01
1.0000000000000000e-03 9.9900000000000000e-01
1.0000000000000000e-03 9.9900000000000000e-01
ITEM: ATOMS id type xs ys zs 
1 1 0.541058 0.11305 0.476841 
2 1 1.04471 0.898751 0.315843 
3 1 0.554506 0.604699 0.739013 
ITEM: TIMESTEP
1300
ITEM: NUMBER OF ATOMS
3
ITEM: BOX BOUNDS pp pp pp
1.0000000000000000e-03 9.9900000000000000e-01
1.0000000000000000e-03 9.9900000000000000e-01
1.0000000000000000e-03 9.9900000000000000e-01
ITEM: ATOMS id type xs ys zs 
1 1 0.806218 0.47502 0.929935 
2 1 0.0544325 0.849149 0.376449 
3 1 0.279625 0.292332 0.225313 
ITEM: TIMESTEP
1400
ITEM: NUMBER OF ATOMS
3
ITEM: BOX BOUNDS pp pp pp
1.0000000000000000e-03 9.9900000000000000e-01
1.0000000000000000e-03 9.9900000000000000e-01
1.0000000000000000e-03 9.9900000000000000e-01
ITEM: ATOMS id type xs ys zs 
1 1 0.753004 0.17838 0.390527 
2 1 0.291133 0.907509 0.367258 
3 1 0.0961395 0.530613 0.773912 
ITEM: TIMESTEP
1500
ITEM: NUMBER OF ATOMS
3
ITEM: BOX BOUNDS pp pp pp
1.0000000000000000e-03 9.9900000000000000e-01
1.0000000000000000e-03 9.9900000000000000e-01
1.0000000000000000e-03 9.9900000000000000e-01
ITEM: ATOMS id type xs ys zs 
1 1 0.552924 0.900171 0.780474 
2 1 0.853962 0.491179 0.534673 
3 1 0.73339 0.22515 0.21655 
ITEM: TIMESTEP
1600
ITEM: NUMBER OF ATOMS
3
ITEM: BOX BOUNDS pp pp pp
1.0000000000000000e-03 9.9900000000000000e-01
1.0000000000000000e-03 9.9900000000000000e-01
1.0000000000000000e-03 9.9900000000000000e-01
ITEM: ATOMS id type xs ys zs 
1 1 0.728748 0.447507 0.735639 
2 1 0.460167 0.364461 0.492202 
3 1 0.951361 0.804534 0.303857 
ITEM: TIMESTEP
1700
ITEM: NUMBER OF ATOMS
3
ITEM: BOX BOUNDS pp pp pp
1.0000000000000000e-03 9.9900000000000000e-01
1.0000000000000000e-03 9.9900000000000000e-01
1.0000000000000000e-03 9.9900000000000000e-01
ITEM: ATOMS id type xs ys zs 
1 1 0.718765 0.0610916 0.405682 
2 1 0.400337 0.118028 0.885843 
3 1 0.0211746 0.437381 0.240172 
ITEM: TIMESTEP
1800
ITEM: NUMBER OF ATOMS
3
ITEM: BOX BOUNDS pp pp pp
1.0000000000000000e-03 9.9900000000000000e-01
1.0000000000000000e-03 9.9900000000000000e-01
1.0000000000000000e-03 9.9900000000000000e-01
ITEM: ATOMS id type xs ys zs 
1 1 1.03128 0.15363 0.760617 
2 1 0.360682 0.600991 0.193048 
3 1 0.748315 0.86188 0.578033 
ITEM: TIMESTEP
1900
ITEM: NUMBER OF ATOMS
3
ITEM: BOX BOUNDS pp pp pp
1.0000000000000000e-03 9.9900000000000000e-01
1.0000000000000000e-03 9.9900000000000000e-01
1.0000000000000000e-03 9.9900000000000000e-01
ITEM: ATOMS id type xs ys zs 
1 1 0.495144 0.770668 0.123953 
2 1 0.518239 0.106119 0.896886 
3 1 0.126892 0.739714 0.510858 
ITEM: TIMESTEP
2000
ITEM: NUMBER OF ATOMS
3
ITEM: BOX BOUNDS pp pp pp
1.0000000000000000e-03 9.9900000000000000e-01
1.0000000000000000e-03 9.9900000000000000e-01
1.0000000000000000e-03 9.9900000000000000e-01
ITEM: ATOMS id type xs ys zs 
1 1 0.432593 0.270671 0.0266355 
2 1 0.706959 0.831635 0.788913 
3 1 0.000723668 0.514195 0.716149 
ITEM: TIMESTEP
2100
ITEM: NUMBER OF ATOMS
3
ITEM: BOX BOUNDS pp pp pp
1.0000000000000000e-03 9.9900000000000000e-01
1.0000000000000000e-03 9.9900000000000000e-01
1.0000000000000000e-03 9.9900000000000000e-01
ITEM: ATOMS id type xs ys zs 
1 1 0.860741 0.112143 0.979225 
2 1 0.952113 0.91503 0.383777 
3 1 0.327421 0.589329 0.168696 
ITEM: TIMESTEP
2200
ITEM: NUMBER OF ATOMS
3
ITEM: BOX BOUNDS pp pp pp
1.0000000000000000e-03 9.9900000000000000e-01
1.0000000000000000e-03 9.9900000000000000e-01
1.0000000000000000e-03 9.9900000000000000e-01
ITEM: ATOMS id type xs ys zs 
1 1 0.413335 0.979717 0.112935 
2 1 0.637684 0.291219 0.792144 
3 1 0.0892565 0.345566 0.626618 
ITEM: TIMESTEP
2300
ITEM: NUMBER OF ATOMS
3
ITEM: BOX BOUNDS pp pp pp
1.0000000000000000e-03 9.9900000000000000e-01
1.0000000000000000e-03 9.9900000000000000e-01
1.0000000000000000e-03 9.9900000000000000e-01
ITEM: ATOMS id type xs ys zs 
1 1 0.693058 0.808867 0.314973 
2 1 0.429381 0.382646 0.731646 
3 1 0.0178368 0.424988 0.485079 
ITEM: TIMESTEP
2400
ITEM: NUMBER OF ATOMS
3
ITEM: BOX BOUNDS pp pp pp
1.0000000000000000e-03 9.9900000000000000e-01
1.0000000000000000e-03 9.9900000000000000e-01
1.0000000000000000e-03 9.9900000000000000e-01
ITEM: ATOMS id type xs ys zs 
1 1 0.641352 0.18085 0.720588 
2 1 0.467575 0.762789 0.21658 
3 1 0.0313484 0.672862 0.59453 
ITEM: TIMESTEP
2500
ITEM: NUMBER OF ATOMS
3
ITEM: BOX BOUNDS pp pp pp
1.0000000000000000e-03 9.9900000000000000e-01
1.0000000000000000e-03 9.9900000000000000e-01
1.0000000000000000e-03 9.9900000000000000e-01
ITEM: ATOMS id type xs ys zs 
1 1 -0.00139793 0.468034 0.846928 
2 1 0.352263 0.195662 0.456336 
3 1 0.789411 -0.0471945 0.228433 
ITEM: TIMESTEP
2600
ITEM: NUMBER OF ATOMS
3
ITEM: BOX BOUNDS pp pp pp
1.0000000000000000e-03 9.9900000000000000e-01
1.0000000000000000e-03 9.9900000000000000e-01
1.0000000000000000e-03 9.9900000000000000e-01
ITEM: ATOMS id type xs ys zs 
1 1 0.651326 0.205629 0.812175 
2 1 0.912649 0.687926 0.241065 
3 1 0.576301 0.722946 0.478457 
ITEM: TIMESTEP
2700
ITEM: NUMBER OF ATOMS
3
ITEM: BOX BOUNDS pp pp pp
1.0000000000000000e-03 9.9900000000000000e-01
1.0000000000000000e-03 9.9900000000000000e-01
1.0000000000000000e-03 9.9900000000000000e-01
ITEM: ATOMS id type xs ys zs 
1 1 0.341191 0.808319 0.797459 
2 1 0.946693 0.573077 0.121846 
3 1 0.852392 0.235105 0.612393 
ITEM: TIMESTEP
2800
ITEM: NUMBER OF ATOMS
3
ITEM: BOX BOUNDS pp pp pp
1.0000000000000000e-03 9.9900000000000000e-01
1.0000000000000000e-03 9.9900000000000000e-01
1.0000000000000000e-03 9.9900000000000000e-01
ITEM: ATOMS id type xs ys zs 
1 1 0.387996 0.889516 0.8425 
2 1 0.662817 0.474999 0.16124 
3 1 0.0894626 0.251985 0.527958 
ITEM: TIMESTEP
2900
ITEM: NUMBER OF ATOMS
3
ITEM: BOX BOUNDS pp pp pp
1.0000000000000000e-03 9.9900000000000000e-01
1.0000000000000000e-03 9.9900000000000000e-01
1.0000000000000000e-03 9.9900000000000000e-01
ITEM: ATOMS id type xs ys zs 
1 1 0.955306 0.930627 0.113375 
2 1 0.648325 0.456098 0.0269356 
3 1 0.536645 0.229777 0.391387 
ITEM: TIMESTEP
3000
ITEM: NUMBER OF ATOMS
3
ITEM: BOX BOUNDS pp pp pp
1.0000000000000000e-03 9.9900000000000000e-01
1.0000000000000000e-03 9.9900000000000000e-01
1.0000000000000000e-03 9.9900000000000000e-01
ITEM: ATOMS id type xs ys zs 
1 1 0.314916 0.324771 0.460155 
2 1 0.282695 0.806628 0.00934247 
3 1 0.542665 0.485102 0.0621997 
ITEM: TIMESTEP
3100
ITEM: NUMBER OF ATOMS
3
ITEM: BOX BOUNDS pp pp pp
1.0000000000000000e-03 9.9900000000000000e-01
1.0000000000000000e-03 9.9900000000000000e-01
1.0000000000000000e-03 9.9900000000000000e-01
ITEM: ATOMS id type xs ys zs 
1 1 0.429661 0.16869 0.486144 
2 1 0.803197 0.757674 0.851995 
3 1 0.907418 0.690137 0.193559 
ITEM: TIMESTEP
3200
ITEM: NUMBER OF ATOMS
3
ITEM: BOX BOUNDS pp pp pp
1.0000000000000000e-03 9.9900000000000000e-01
1.0000000000000000e-03 9.9900000000000000e-01
1.0000000000000000e-03 9.9900000000000000e-01
ITEM: ATOMS id type xs ys zs 
1 1 0.299637 0.850685 0.38049 
2 1 0.796657 0.100753 0.340268 
3 1 0.043982 0.665063 0.81094 
ITEM: TIMESTEP
3300
ITEM: NUMBER OF ATOMS
3
ITEM: BOX BOUNDS pp pp pp
1.0000000000000000e-03 9.9900000000000000e-01
1.0000000000000000e-03 9.9900000000000000e-01
1.0000000000000000e-03 9.9900000000000000e-01
ITEM: ATOMS id type xs ys zs 
1 1 0.708972 0.805469 0.843265 
2 1 0.972551 0.221781 0.628295 
3 1 0.458753 0.589251 0.0601375 
ITEM: TIMESTEP
3400
ITEM: NUMBER OF ATOMS
3
ITEM: BOX BOUNDS pp pp pp
1.0000000000000000e-03 9.9900000000000000e-01
1.0000000000000000e-03 9.9900000000000000e-01
1.0000000000000000e-03 9.9900000000000000e-01
ITEM: ATOMS id type xs ys zs 
1 1 0.236175 0.787477 0.795535 
2 1 0.159173 0.640543 0.298893 
3 1 0.744928 0.188481 0.43727 
ITEM: TIMESTEP
3500
ITEM: NUMBER OF ATOMS
3
ITEM: BOX BOUNDS pp pp pp
1.0000000000000000e-03 9.9900000000000000e-01
1.0000000000000000e-03 9.9900000000000000e-01
1.0000000000000000e-03 9.9900000000000000e-01
ITEM: ATOMS id type xs ys zs 
1 1 0.631363 0.474611 0.335669 
2 1 -0.00072881 0.296254 0.908328 
3 1 0.509642 0.845635 0.287701 
ITEM: TIMESTEP
3600
ITEM: NUMBER OF ATOMS
3
ITEM: BOX BOUNDS pp pp pp
1.0000000000000000e-03 9.9900000000000000e-01
1.0000000000000000e-03 9.9900000000000000e-01
1.0000000000000000e-03 9.9900000000000000e-01
ITEM: ATOMS id type xs ys zs 
1 1 0.83708 0.332992 0.481752 
2 1 0.252096 0.35566 0.256192 
3 1 0.0511004 0.927849 0.793754 
ITEM: TIMESTEP
3700
ITEM: NUMBER OF ATOMS
3
ITEM: BOX BOUNDS pp pp pp
1.0000000000000000e-03 9.9900000000000000e-01
1.0000000000000000e-03 9.9900000000000000e-01
1.0000000000000000e-03 9.9900000000000000e-01
ITEM: ATOMS id type xs ys zs 
1 1 0.86919 0.332706 0.492955 
2 1 0.354174 0.699543 0.148944 
3 1 0.916912 0.584252 0.889799 
ITEM: TIMESTEP
3800
ITEM: NUMBER OF ATOMS
3
ITEM: BOX BOUNDS pp pp pp
1.0000000000000000e-03 9.9900000000000000e-01
1.0000000000000000e-03 9.9900000000000000e-01
1.0000000000000000e-03 9.9900000000000000e-01
ITEM: ATOMS id type xs ys zs 
1 1 0.745981 0.0828132 0.187867 
2 1 0.105278 0.39288 0.898975 
3 1 0.289017 0.140808 0.444856 
ITEM: TIMESTEP
3900
ITEM: NUMBER OF ATOMS
3
ITEM: BOX BOUNDS pp pp pp
1.0000000000000000e-03 9.9900000000000000e-01
1.0000000000000000e-03 9.9900000000000000e-01
1.0000000000000000e-03 9.9900000000000000e-01
ITEM: ATOMS id type xs ys zs 
1 1 0.804968 0.965562 0.481783 
2 1 0.301908 0.490615 0.839142 
3 1 1.0334 0.160324 0.210773 
ITEM: TIMESTEP
4000
ITEM: NUMBER OF ATOMS
3
ITEM: BOX BOUNDS pp pp pp
1.0000000000000000e-03 9.9900000000000000e-01
1.0000000000000000e-03 9.9900000000000000e-01
1.0000000000000000e-03 9.9900000000000000e-01
ITEM: ATOMS id type xs ys zs 
1 1 0.756697 0.10548 0.0871372 
2 1 0.11085 0.56517 0.520614 
3 1 0.272729 0.945851 0.923947 
ITEM: TIMESTEP
4100
ITEM: NUMBER OF ATOMS
3
ITEM: BOX BOUNDS pp pp pp
1.0000000000000000e-03 9.9900000000000000e-01
1.0000000000000000e-03 9.9900000000000000e-01
1.0000000000000000e-03 9.9900000000000000e-01
ITEM: ATOMS id type xs ys zs 
1 1 0.13081 0.199606 0.925271 
2 1 0.535512 0.632841 0.0425928 
3 1 0.473953 0.784054 0.563834 
ITEM: TIMESTEP
4200
ITEM: NUMBER OF ATOMS
3
ITEM: BOX BOUNDS pp pp pp
1.0000000000000000e-03 9.9900000000000000e-01
1.0000000000000000e-03 9.9900000000000000e-01
1.0000000000000000e-03 9.9900000000000000e-01
ITEM: ATOMS id type xs ys zs 
1 1 0.0448835 0.0793903 0.700076 
2 1 0.84761 0.9845 0.678058 
3 1 0.247782 0.552611 0.153563 
ITEM: TIMESTEP
4300
ITEM: NUMBER OF ATOMS
3
ITEM: BOX BOUNDS pp pp pp
1.0000000000000000e-03 9.9900000000000000e-01
1.0000000000000000e-03 9.9900000000000000e-01
1.0000000000000000e-03 9.9900000000000000e-01
ITEM: ATOMS id type xs ys zs 
1 1 0.119141 0.632232 0.493073 
2 1 0.344965 0.0456952 0.876968 
3 1 0.67617 0.938574 0.161657 
ITEM: TIMESTEP
4400
ITEM: NUMBER OF ATOMS
3
ITEM: BOX BOUNDS pp pp pp
1.0000000000000000e-03 9.9900000000000000e-01
1.0000000000000000e-03 9.9900000000000000e-01
1.0000000000000000e-03 9.9900000000000000e-01
ITEM: ATOMS id type xs ys zs 
1 1 0.494472 0.613171 0.753685 
2 1 0.419085 0.760469 0.636626 
3 1 0.226719 0.24286 0.141387 
ITEM: TIMESTEP
4500
ITEM: NUMBER OF ATOMS
3
ITEM: BOX BOUNDS pp pp pp
1.0000000000000000e-03 9.9900000000000000e-01
1.0000000000000000e-03 9.9900000000000000e-01
1.0000000000000000e-03 9.9900000000000000e-01
ITEM: ATOMS id type xs ys zs 
1 1 0.304007 0.580067 0.862846 
2 1 1.00283 0.74704 0.532555 
3 1 0.833435 0.289394 0.136296 
ITEM: TIMESTEP
4600
ITEM: NUMBER OF ATOMS
3
ITEM: BOX BOUNDS pp pp pp
1.0000000000000000e-03 9.9900000000000000e-01
1.0000000000000000e-03 9.9900000000000000e-01
1.0000000000000000e-03 9.9900000000000000e-01
ITEM: ATOMS id type xs ys zs 
1 1 0.0265805 0.678449 0.182396 
2 1 0.849471 0.741575 0.568032 
3 1 0.264224 0.196477 0.781269 
ITEM: TIMESTEP
4700
ITEM: NUMBER OF ATOMS
3
ITEM: BOX BOUNDS pp pp pp
1.0000000000000000e-03 9.9900000000000000e-01
1.0000000000000000e-03 9.9900000000000000e-01
1.0000000000000000e-03 9.9900000000000000e-01
ITEM: ATOMS id type xs ys zs 
1 1 0.984318 0.487934 0.119918 
2 1 0.319371 1.01271 0.54499 
3 1 0.836587 0.115856 0.866789 
ITEM: TIMESTEP
4800
ITEM: NUMBER OF ATOMS
3
ITEM: BOX BOUNDS pp pp pp
1.0000000000000000e-03 9.9900000000000000e-01
1.0000000000000000e-03 9.9900000000000000e-01
1.0000000000000000e-03 9.9900000000000000e-01
ITEM: ATOMS id type xs ys zs 
1 1 0.55348 0.620077 0.224711 
2 1 0.224397 0.15933 0.556663 
3 1 0.3624 0.837094 0.750323 
ITEM: TIMESTEP
4900
ITEM: NUMBER OF ATOMS
3
ITEM: BOX BOUNDS pp pp pp
1.0000000000000000e-03 9.9900000000000000e-01
1.0000000000000000e-03 9.9900000000000000e-01
1.0000000000000000e-03 9.9900000000000000e-01
ITEM: ATOMS id type xs ys zs 
1 1 0.427589 0.499096 0.440249 
2 1 0.0639986 0.129862 0.342584 
3 1 0.648689 -0.0124562 0.748864 
ITEM: TIMESTEP
5000
ITEM: NUMBER OF ATOMS
3
ITEM: BOX BOUNDS pp pp pp
1.0000000000000000e-03 9.9900000000000000e-01
1.0000000000000000e-03 9.9900000000000000e-01
1.0000000000000000e-03 9.9900000000000000e-01
ITEM: ATOMS id type xs ys zs 
1 1 0.286271 0.292481 0.152705 
2 1 0.0605521 0.467408 0.505881 
3 1 0.793453 0.856613 0.873111 
ITEM: TIMESTEP
5100
ITEM: NUMBER OF ATOMS
3
ITEM: BOX BOUNDS pp pp pp
1.0000000000000000e-03 9.9900000000000000e-01
1.0000000000000000e-03 9.9900000000000000e-01
1.0000000000000000e-03 9.9900000000000000e-01
ITEM: ATOMS id type xs ys zs 
1 1 0.434268 0.852173 0.320063 
2 1 0.0416676 0.257555 0.500997 
3 1 0.66434 0.506773 0.710637 
ITEM: TIMESTEP
5200
ITEM: NUMBER OF ATOMS
3
ITEM: BOX BOUNDS pp pp pp
1.0000000000000000e-03 9.9900000000000000e-01
1.0000000000000000e-03 9.9900000000000000e-01
1.0000000000000000e-03 9.9900000000000000e-01
ITEM: ATOMS id type xs ys zs 
1 1 0.15549 0.60243 0.121845 
2 1 0.158094 0.197596 0.89357 
3 1 0.826692 0.816475 0.516283 
ITEM: TIMESTEP
5300
ITEM: NUMBER OF ATOMS
3
ITEM: BOX BOUNDS pp pp pp
1.0000000000000000e-03 9.9900000000000000e-01
1.0000000000000000e-03 9.9900000000000000e-01
1.0000000000000000e-03 9.9900000000000000e-01
ITEM: ATOMS id type xs ys zs 
1 1 0.0301495 0.523572 0.122587 
2 1 0.626955 0.272581 0.659906 
3 1 0.483172 0.820348 0.749205 
ITEM: TIMESTEP
5400
ITEM: NUMBER OF ATOMS
3
ITEM: BOX BOUNDS pp pp pp
1.0000000000000000e-03 9.9900000000000000e-01
1.0000000000000000e-03 9.9900000000000000e-01
1.0000000000000000e-03 9.9900000000000000e-01
ITEM: ATOMS id type xs ys zs 
1 1 0.775442 0.796987 -0.0728311 
2 1 0.953472 0.273703 0.464759 
3 1 0.411361 0.545811 0.13977 
ITEM: TIMESTEP
5500
ITEM: NUMBER OF ATOMS
3
ITEM: BOX BOUNDS pp pp pp
1.0000000000000000e-03 9.9900000000000000e-01
1.0000000000000000e-03 9.9900000000000000e-01
1.0000000000000000e-03 9.9900000000000000e-01
ITEM: ATOMS id type xs ys zs 
1 1 0.672545 0.507307 0.873554 
2 1 -0.000923674 0.934645 0.579852 
3 1 0.468655 0.17455 0.0782914 
ITEM: TIMESTEP
5600
ITEM: NUMBER OF ATOMS
3
ITEM: BOX BOUNDS pp pp pp
1.0000000000000000e-03 9.9900000000000000e-01
1.0000000000000000e-03 9.9900000000000000e-01
1.0000000000000000e-03 9.9900000000000000e-01
ITEM: ATOMS id type xs ys zs 
1 1 0.880876 0.182402 0.45577 
2 1 0.871921 0.868666 0.938764 
3 1 0.387479 0.565432 0.137164 
ITEM: TIMESTEP
5700
ITEM: NUMBER OF ATOMS
3
ITEM: BOX BOUNDS pp pp pp
1.0000000000000000e-03 9.9900000000000000e-01
1.0000000000000000e-03 9.9900000000000000e-01
1.0000000000000000e-03 9.9900000000000000e-01
ITEM: ATOMS id type xs ys zs 
1 1 0.928931 0.395565 0.479681 
2 1 0.824897 0.815529 0.190427 
3 1 0.386448 0.405406 0.86159 
ITEM: TIMESTEP
5800
ITEM: NUMBER OF ATOMS
3
ITEM: BOX BOUNDS pp pp pp
1.0000000000000000e-03 9.9900000000000000e-01
1.0000000000000000e-03 9.9900000000000000e-01
1.0000000000000000e-03 9.9900000000000000e-01
ITEM: ATOMS id type xs ys zs 
1 1 0.131148 0.049306 0.450575 
2 1 0.569438 0.838268 0.215041 
3 1 0.43969 0.728927 0.866082 
ITEM: TIMESTEP
5900
ITEM: NUMBER OF ATOMS
3
ITEM: BOX BOUNDS pp pp pp
1.0000000000000000e-03 9.9900000000000000e-01
1.0000000000000000e-03 9.9900000000000000e-01
1.0000000000000000e-03 9.9900000000000000e-01
ITEM: ATOMS id type xs ys zs 
1 1 0.761756 0.873325 0.92796 
2 1 0.323918 0.728214 0.253361 
3 1 0.0546014 0.0149617 0.350377 
ITEM: TIMESTEP
6000
ITEM: NUMBER OF ATOMS
3
ITEM: BOX BOUNDS pp pp pp
1.0000000000000000e-03 9.9900000000000000e-01
1.0000000000000000e-03 9.9900000000000000e-01
1.0000000000000000e-03 9.9900000000000000e-01
ITEM: ATOMS id type xs ys zs 
1 1 0.820467 0.14643 0.78206 
2 1 0.909012 0.604658 0.25814 
3 1 0.410797 0.865413 0.491498 
ITEM: TIMESTEP
6100
ITEM: NUMBER OF ATOMS
3
ITEM: BOX BOUNDS pp pp pp
1.0000000000000000e-03 9.9900000000000000e-01
1.0000000000000000e-03 9.9900000000000000e-01
1.0000000000000000e-03 9.9900000000000000e-01
ITEM: ATOMS id type xs ys zs 
1 1 0.0454413 0.422841 0.84765 
2 1 0.608224 0.139808 0.175869 
3 1 0.48661 0.0538527 0.508179 
ITEM: TIMESTEP
6200
ITEM: NUMBER OF ATOMS
3
ITEM: BOX BOUNDS pp pp pp
1.0000000000000000e-03 9.9900000000000000e-01
1.0000000000000000e-03 9.9900000000000000e-01
1.0000000000000000e-03 9.9900000000000000e-01
ITEM: ATOMS id type xs ys zs 
1 1 0.0986547 0.634243 0.140754 
2 1 0.583871 0.242912 0.481297 
3 1 0.45775 0.739346 0.909647 
ITEM: TIMESTEP
6300
ITEM: NUMBER OF ATOMS
3
ITEM: BOX BOUNDS pp pp pp
1.0000000000000000e-03 9.9900000000000000e-01
1.0000000000000000e-03 9.9900000000000000e-01
1.0000000000000000e-03 9.9900000000000000e-01
ITEM: ATOMS id type xs ys zs 
1 1 0.0625156 0.523858 0.55124 
2 1 0.732585 0.94817 0.0543706 
3 1 0.345175 0.144473 0.926087 
ITEM: TIMESTEP
6400
ITEM: NUMBER OF ATOMS
3
ITEM: BOX BOUNDS pp pp pp
1.0000000000000000e-03 9.9900000000000000e-01
1.0000000000000000e-03 9.9900000000000000e-01
1.0000000000000000e-03 9.9900000000000000e-01
ITEM: ATOMS id type xs ys zs 
1 1 0.707728 0.324223 0.292845 
2 1 0.418582 0.00992162 0.207379 
3 1 1.01397 0.282357 0.0314745 
ITEM: TIMESTEP
6500
ITEM: NUMBER OF ATOMS
3
ITEM: BOX BOUNDS pp pp pp
1.0000000000000000e-03 9.9900000000000000e-01
1.0000000000000000e-03 9.9900000000000000e-01
1.0000000000000000e-03 9.9900000000000000e-01
ITEM: ATOMS id type xs ys zs 
1 1 0.622509 0.418378 0.23716 
2 1 0.385809 0.880698 0.781441 
3 1 0.131957 0.317425 0.513097 
ITEM: TIMESTEP
6600
ITEM: NUMBER OF ATOMS
3
ITEM: BOX BOUNDS pp pp pp
1.0000000000000000e-03 9.9900000000000000e-01
1.0000000000000000e-03 9.9900000000000000e-01
1.0000000000000000e-03 9.9900000000000000e-01
ITEM: ATOMS id type xs ys zs 
1 1 0.659292 0.141602 0.318847 
2 1 0.350315 1.00367 0.843538 
3 1 0.130669 0.471228 0.369312 
ITEM: TIMESTEP
6700
ITEM: NUMBER OF ATOMS
3
ITEM: BOX BOUNDS pp pp pp
1.0000000000000000e-03 9.9900000000000000e-01
1.0000000000000000e-03 9.9900000000000000e-01
1.0000000000000000e-03 9.9900000000000000e-01
ITEM: ATOMS id type xs ys zs 
1 1 0.25661 0.143461 0.0862459 
2 1 0.817072 0.701678 0.0956346 
3 1 0.0665937 0.771361 0.349817 
ITEM: TIMESTEP
6800
ITEM: NUMBER OF ATOMS
3
ITEM: BOX BOUNDS pp pp pp
1.0000000000000000e-03 9.9900000000000000e-01
1.0000000000000000e-03 9.9900000000000000e-01
1.0000000000000000e-03 9.9900000000000000e-01
ITEM: ATOMS id type xs ys zs 
1 1 0.331945 0.0892286 0.420556 
2 1 0.65182 0.914106 0.440918 
3 1 0.156511 0.613167 0.670224 
ITEM: TIMESTEP
6900
ITEM: NUMBER OF ATOMS
3
ITEM: BOX BOUNDS pp pp pp
1.0000000000000000e-03 9.9900000000000000e-01
1.0000000000000000e-03 9.9900000000000000e-01
1.0000000000000000e-03 9.9900000000000000e-01
ITEM: ATOMS id type xs ys zs 
1 1 0.0960666 0.973775 0.209804 
2 1 0.971354 0.617308 0.49895 
3 1 0.0728548 0.025418 0.822943 
ITEM: TIMESTEP
7000
ITEM: NUMBER OF ATOMS
3
ITEM: BOX BOUNDS pp pp pp
1.0000000000000000e-03 9.9900000000000000e-01
1.0000000000000000e-03 9.9900000000000000e-01
1.0000000000000000e-03 9.9900000000000000e-01
ITEM: ATOMS id type xs ys zs 
1 1 0.985473 0.64302 0.67083 
2 1 0.623241 0.752566 0.536159 
3 1 0.531562 0.220915 0.324709 
ITEM: TIMESTEP
7100
ITEM: NUMBER OF ATOMS
3
ITEM: BOX BOUNDS pp pp pp
1.0000000000000000e-03 9.9900000000000000e-01
1.0000000000000000e-03 9.9900000000000000e-01
1.0000000000000000e-03 9.9900000000000000e-01
ITEM: ATOMS id type xs ys zs 
1 1 0.801889 0.485495 0.0476862 
2 1 0.063185 0.917213 0.434388 
3 1 0.275202 0.213793 0.0496232 
ITEM: TIMESTEP
7200
ITEM: NUMBER OF ATOMS
3
ITEM: BOX BOUNDS pp pp pp
1.0000000000000000e-03 9.9900000000000000e-01
1.0000000000000000e-03 9.9900000000000000e-01
1.0000000000000000e-03 9.9900000000000000e-01
ITEM: ATOMS id type xs ys zs 
1 1 0.410662 0.879765 0.90329 
2 1 0.753056 0.582595 0.546087 
3 1 -0.0234419 0.154141 0.082321 
ITEM: TIMESTEP
7300
ITEM: NUMBER OF ATOMS
3
ITEM: BOX BOUNDS pp pp pp
1.0000000000000000e-03 9.9900000000000000e-01
1.0000000000000000e-03 9.9900000000000000e-01
1.0000000000000000e-03 9.9900000000000000e-01
ITEM: ATOMS id type xs ys zs 
1 1 0.259905 0.790857 0.223646 
2 1 0.710896 0.53535 0.645202 
3 1 0.169475 0.290294 0.662849 
ITEM: TIMESTEP
7400
ITEM: NUMBER OF ATOMS
3
ITEM: BOX BOUNDS pp pp pp
1.0000000000000000e-03 9.9900000000000000e-01
1.0000000000000000e-03 9.9900000000000000e-01
1.0000000000000000e-03 9.9900000000000000e-01
ITEM: ATOMS id type xs ys zs 
1 1 0.0861166 0.183415 0.270668 
2 1 0.587381 0.595489 0.35116 
3 1 0.466778 0.837597 0.90987 
ITEM: TIMESTEP
7500
ITEM: NUMBER OF ATOMS
3
ITEM: BOX BOUNDS pp pp pp
1.0000000000000000e-03 9.9900000000000000e-01
1.0000000000000000e-03 9.9900000000000000e-01
1.0000000000000000e-03 9.9900000000000000e-01
ITEM: ATOMS id type xs ys zs 
1 1 0.556477 0.29019 0.589785 
2 1 0.376334 0.492567 0.204522 
3 1 0.207465 0.833744 0.73739 
ITEM: TIMESTEP
7600
ITEM: NUMBER OF ATOMS
3
ITEM: BOX BOUNDS pp pp pp
1.0000000000000000e-03 9.9900000000000000e-01
1.0000000000000000e-03 9.9900000000000000e-01
1.0000000000000000e-03 9.9900000000000000e-01
ITEM: ATOMS id type xs ys zs 
1 1 0.130993 0.309317 0.89369 
2 1 0.174009 0.39545 0.536226 
3 1 0.835274 0.911734 0.101781 
ITEM: TIMESTEP
7700
ITEM: NUMBER OF ATOMS
3
ITEM: BOX BOUNDS pp pp pp
1.0000000000000000e-03 9.9900000000000000e-01
1.0000000000000000e-03 9.9900000000000000e-01
1.0000000000000000e-03 9.9900000000000000e-01
ITEM: ATOMS id type xs ys zs 
1 1 0.658298 0.528462 0.21324 
2 1 0.0397153 0.256661 0.0474147 
3 1 0.442263 0.831377 0.271042 
ITEM: TIMESTEP
7800
ITEM: NUMBER OF ATOMS
3
ITEM: BOX BOUNDS pp pp pp
1.0000000000000000e-03 9.9900000000000000e-01
1.0000000000000000e-03 9.9900000000000000e-01
1.0000000000000000e-03 9.9900000000000000e-01
ITEM: ATOMS id type xs ys zs 
1 1 0.424822 0.988709 0.897505 
2 1 0.660422 0.687328 0.437407 
3 1 0.0550315 0.940464 0.196786 
ITEM: TIMESTEP
7900
ITEM: NUMBER OF ATOMS
3
ITEM: BOX BOUNDS pp pp pp
1.0000000000000000e-03 9.9900000000000000e-01
1.0000000000000000e-03 9.9900000000000000e-01
1.0000000000000000e-03 9.9900000000000000e-01
ITEM: ATOMS id type xs ys zs 
1 1 0.402115 0.659377 0.954635 
2 1 0.670096 0.811615 0.413381 
3 1 0.0680648 0.145509 0.163682 
ITEM: TIMESTEP
8000
ITEM: NUMBER OF ATOMS
3
ITEM: BOX BOUNDS pp pp pp
1.0000000000000000e-03 9.9900000000000000e-01
1.0000000000000000e-03 9.9900000000000000e-01
1.0000000000000000e-03 9.9900000000000000e-01
ITEM: ATOMS id type xs ys zs 
1 1 0.979397 0.464799 0.219722 
2 1 0.792855 0.231679 0.710532 
3 1 0.368023 0.920023 0.601444 
ITEM: TIMESTEP
8100
ITEM: NUMBER OF ATOMS
3
ITEM: BOX BOUNDS pp pp pp
1.0000000000000000e-03 9.9900000000000000e-01
1.0000000000000000e-03 9.9900000000000000e-01
1.0000000000000000e-03 9.9900000000000000e-01
ITEM: ATOMS id type xs ys zs 
1 1 0.441252 0.0345571 0.259338 
2 1 0.576202 0.76153 1.06864 
3 1 0.122821 0.820414 0.203716 
ITEM: TIMESTEP
8200
ITEM: NUMBER OF ATOMS
3
ITEM: BOX BOUNDS pp pp pp
1.0000000000000000e-03 9.9900000000000000e-01
1.0000000000000000e-03 9.9900000000000000e-01
1.0000000000000000e-03 9.9900000000000000e-01
ITEM: ATOMS id type xs ys zs 
1 1 0.401945 0.323602 0.93505 
2 1 0.664813 0.389956 0.573144 
3 1 0.0735177 0.902943 0.0235039 
ITEM: TIMESTEP
8300
ITEM: NUMBER OF ATOMS
3
ITEM: BOX BOUNDS pp pp pp
1.0000000000000000e-03 9.9900000000000000e-01
1.0000000000000000e-03 9.9900000000000000e-01
1.0000000000000000e-03 9.9900000000000000e-01
ITEM: ATOMS id type xs ys zs 
1 1 0.401337 0.300269 0.383431 
2 1 0.665241 0.435958 0.146925 
3 1 1.0737 0.880274 1.00134 
ITEM: TIMESTEP
8400
ITEM: NUMBER OF ATOMS
3
ITEM: BOX BOUNDS pp pp pp
1.0000000000000000e-03 9.9900000000000000e-01
1.0000000000000000e-03 9.9900000000000000e-01
1.0000000000000000e-03 9.9900000000000000e-01
ITEM: ATOMS id type xs ys zs 
1 1 0.062466 0.171438 -0.0887187 
2 1 0.391889 0.664949 0.997857 
3 1 0.685921 0.780114 0.622559 
ITEM: TIMESTEP
8500
ITEM: NUMBER OF ATOMS
3
ITEM: BOX BOUNDS pp pp pp
1.0000000000000000e-03 9.9900000000000000e-01
1.0000000000000000e-03 9.9900000000000000e-01
1.0000000000000000e-03 9.9900000000000000e-01
ITEM: ATOMS id type xs ys zs 
1 1 -0.00887717 0.68637 0.197536 
2 1 0.341157 0.822279 0.521893 
3 1 0.807996 0.107852 0.812269 
ITEM: TIMESTEP
8600
ITEM: NUMBER OF ATOMS
3
ITEM: BOX BOUNDS pp pp pp
1.0000000000000000e-03 9.9900000000000000e-01
1.0000000000000000e-03 9.9900000000000000e-01
1.0000000000000000e-03 9.9900000000000000e-01
ITEM: ATOMS id type xs ys zs 
1 1 0.885348 0.479725 0.521272 
2 1 0.846629 0.88465 0.104458 
3 1 0.408298 0.252126 0.905968 
ITEM: TIMESTEP
8700
ITEM: NUMBER OF ATOMS
3
ITEM: BOX BOUNDS pp pp pp
1.0000000000000000e-03 9.9900000000000000e-01
1.0000000000000000e-03 9.9900000000000000e-01
1.0000000000000000e-03 9.9900000000000000e-01
ITEM: ATOMS id type xs ys zs 
1 1 -0.0151772 0.526659 0.5106 
2 1 0.792888 0.870758 0.0942298 
3 1 0.362565 0.219084 0.926868 
ITEM: TIMESTEP
8800
ITEM: NUMBER OF ATOMS
3
ITEM: BOX BOUNDS pp pp pp
1.0000000000000000e-03 9.9900000000000000e-01
1.0000000000000000e-03 9.9900000000000000e-01
1.0000000000000000e-03 9.9900000000000000e-01
ITEM: ATOMS id type xs ys zs 
1 1 0.0362113 0.553309 0.723076 
2 1 0.453284 0.706174 0.0784316 
3 1 0.650781 0.357018 0.73019 
ITEM: TIMESTEP
8900
ITEM: NUMBER OF ATOMS
3
ITEM: BOX BOUNDS pp pp pp
1.0000000000000000e-03 9.9900000000000000e-01
1.0000000000000000e-03 9.9900000000000000e-01
1.0000000000000000e-03 9.9900000000000000e-01
ITEM: ATOMS id type xs ys zs 
1 1 0.0271278 0.200343 0.924756 
2 1 0.761302 0.978369 0.537142 
3 1 0.351846 0.43779 0.0697994 
ITEM: TIMESTEP
9000
ITEM: NUMBER OF ATOMS
3
ITEM: BOX BOUNDS pp pp pp
1.0000000000000000e-03 9.9900000000000000e-01
1.0000000000000000e-03 9.9900000000000000e-01
1.0000000000000000e-03 9.9900000000000000e-01
ITEM: ATOMS id type xs ys zs 
1 1 0.139141 -0.0102836 0.54522 
2 1 0.0839448 0.0469116 0.930516 
3 1 0.91719 0.579873 0.0559615 
ITEM: TIMESTEP
9100
ITEM: NUMBER OF ATOMS
3
ITEM: BOX BOUNDS pp pp pp
1.0000000000000000e-03 9.9900000000000000e-01
1.0000000000000000e-03 9.9900000000000000e-01
1.0000000000000000e-03 9.9900000000000000e-01
ITEM: ATOMS id type xs ys zs 
1 1 0.797133 0.878416 0.650157 
2 1 0.0455033 0.258514 0.838208 
3 1 0.297639 0.47957 0.0433332 
ITEM: TIMESTEP
9200
ITEM: NUMBER OF ATOMS
3
ITEM: BOX BOUNDS pp pp pp
1.0000000000000000e-03 9.9900000000000000e-01
1.0000000000000000e-03 9.9900000000000000e-01
1.0000000000000000e-03 9.9900000000000000e-01
ITEM: ATOMS id type xs ys zs 
1 1 0.970667 0.337254 0.542055 
2 1 0.362056 0.902361 0.734593 
3 1 0.807553 0.376886 0.255049 
ITEM: TIMESTEP
9300
ITEM: NUMBER OF ATOMS
3
ITEM: BOX BOUNDS pp pp pp
1.0000000000000000e-03 9.9900000000000000e-01
1.0000000000000000e-03 9.9900000000000000e-01
1.0000000000000000e-03 9.9900000000000000e-01
ITEM: ATOMS id type xs ys zs 
1 1 0.592542 0.614927 0.926828 
2 1 0.350074 0.850281 0.0974532 
3 1 0.197659 0.151293 0.507417 
ITEM: TIMESTEP
9400
ITEM: NUMBER OF ATOMS
3
ITEM: BOX BOUNDS pp pp pp
1.0000000000000000e-03 9.9900000000000000e-01
1.0000000000000000e-03 9.9900000000000000e-01
1.0000000000000000e-03 9.9900000000000000e-01
ITEM: ATOMS id type xs ys zs 
1 1 0.767845 0.618565 0.685186 
2 1 0.336085 0.779047 0.0869409 
3 1 1.03635 0.218889 0.759571 
ITEM: TIMESTEP
9500
ITEM: NUMBER OF ATOMS
3
ITEM: BOX BOUNDS pp pp pp
1.0000000000000000e-03 9.9900000000000000e-01
1.0000000000000000e-03 9.9900000000000000e-01
1.0000000000000000e-03 9.9900000000000000e-01
ITEM: ATOMS id type xs ys zs 
1 1 0.941894 0.017136 1.00954 
2 1 0.0757717 0.144907 0.424169 
3 1 0.122611 0.454458 0.097985 
ITEM: TIMESTEP
9600
ITEM: NUMBER OF ATOMS
3
ITEM: BOX BOUNDS pp pp pp
1.0000000000000000e-03 9.9900000000000000e-01
1.0000000000000000e-03 9.9900000000000000e-01
1.0000000000000000e-03 9.9900000000000000e-01
ITEM: ATOMS id type xs ys zs 
1 1 0.928881 0.454525 0.00492456 
2 1 0.437146 0.242021 0.435598 
3 1 0.774249 0.919955 0.0911755 
ITEM: TIMESTEP
9700
ITEM: NUMBER OF ATOMS
3
ITEM: BOX BOUNDS pp pp pp
1.0000000000000000e-03 9.9900000000000000e-01
1.0000000000000000e-03 9.9900000000000000e-01
1.0000000000000000e-03 9.9900000000000000e-01
ITEM: ATOMS id type xs ys zs 
1 1 0.716603 0.547655 0.717414 
2 1 0.227735 -0.0306466 0.557087 
3 1 0.195938 0.099492 0.257196 
ITEM: TIMESTEP
9800
ITEM: NUMBER OF ATOMS
3
ITEM: BOX BOUNDS pp pp pp
1.0000000000000000e-03 9.9900000000000000e-01
1.0000000000000000e-03 9.9900000000000000e-01
1.0000000000000000e-03 9.9900000000000000e-01
ITEM: ATOMS id type xs ys zs 
1 1 0.952602 0.364601 0.831602 
2 1 0.632092 0.454484 0.541547 
3 1 0.555582 0.797416 0.158548 
ITEM: TIMESTEP
9900
ITEM: NUMBER OF ATOMS
3
ITEM: BOX BOUNDS pp pp pp
1.0000000000000000e-03 9.9900000000000000e-01
1.0000000000000000e-03 9.9900000000000000e-01
1.0000000000000000e-03 9.9900000000000000e-01
ITEM: ATOMS id type xs ys zs 
1 1 0.681844 0.529239 0.555958 