ITEM: TIMESTEP
1000
ITEM: NUMBER OF ATOMS
2
ITEM: BOX BOUNDS pp pp pp
1.0000000000000000e-03 9.9900000000000000e-01
1.0000000000000000e-03 9.9900000000000000e-01
1.0000000000000000e-03 9.9900000000000000e-01
ITEM: ATOMS id type xs ys zs 
1 1 0.947362 0.0727301 0.644588 
2 1 0.594871 0.235295 0.324908 
ITEM: TIMESTEP
1100
ITEM: NUMBER OF ATOMS
2
ITEM: BOX BOUNDS pp pp pp
1.0000000000000000e-03 9.9900000000000000e-01
1.0000000000000000e-03 9.9900000000000000e-01
1.0000000000000000e-03 9.9900000000000000e-01
ITEM: ATOMS id type xs ys zs 
1 1 1.06092 0.00295298 0.75424 
2 1 0.481308 0.305072 0.215256 
ITEM: TIMESTEP
1200
ITEM: NUMBER OF ATOMS
2
ITEM: BOX BOUNDS pp pp pp
1.0000000000000000e-03 9.9900000000000000e-01
1.0000000000000000e-03 9.9900000000000000e-01
1.0000000000000000e-03 9.9900000000000000e-01
ITEM: ATOMS id type xs ys zs 
1 1 -0.00320209 0.202245 0.501962 
2 1 0.545435 0.105779 0.467534 
ITEM: TIMESTEP
1300
ITEM: NUMBER OF ATOMS
2
ITEM: BOX BOUNDS pp pp pp
1.0000000000000000e-03 9.9900000000000000e-01
1.0000000000000000e-03 9.9900000000000000e-01
1.0000000000000000e-03 9.9900000000000000e-01
ITEM: ATOMS id type xs ys zs 
1 1 0.0398514 0.445858 0.326012 
2 1 0.502382 0.862167 0.643484 
ITEM: TIMESTEP
1400
ITEM: NUMBER OF ATOMS
2
ITEM: BOX BOUNDS pp pp pp
1.0000000000000000e-03 9.9900000000000000e-01
1.0000000000000000e-03 9.9900000000000000e-01
1.0000000000000000e-03 9.9900000000000000e-01
ITEM: ATOMS id type xs ys zs 
1 1 1.00446 0.299137 0.119097 
2 1 0.537769 1.00889 0.850399 
ITEM: TIMESTEP
1500
ITEM: NUMBER OF ATOMS
2
ITEM: BOX BOUNDS pp pp pp
1.0000000000000000e-03 9.9900000000000000e-01
1.0000000000000000e-03 9.9900000000000000e-01
1.0000000000000000e-03 9.9900000000000000e-01
ITEM: ATOMS id type xs ys zs 
1 1 1.00441 0.343422 0.158241 
2 1 0.537824 0.964602 0.811256 
ITEM: TIMESTEP
1600
ITEM: NUMBER OF ATOMS
2
ITEM: BOX BOUNDS pp pp pp
1.0000000000000000e-03 9.9900000000000000e-01
1.0000000000000000e-03 9.9900000000000000e-01
1.0000000000000000e-03 9.9900000000000000e-01
ITEM: ATOMS id type xs ys zs 
1 1 0.0998195 0.480279 0.270891 
2 1 0.442413 0.827746 0.698605 
ITEM: TIMESTEP
1700
ITEM: NUMBER OF ATOMS
2
ITEM: BOX BOUNDS pp pp pp
1.0000000000000000e-03 9.9900000000000000e-01
1.0000000000000000e-03 9.9900000000000000e-01
1.0000000000000000e-03 9.9900000000000000e-01
ITEM: ATOMS id type xs ys zs 
1 1 0.0425807 0.406548 0.05999 
2 1 0.499652 0.901477 0.909506 
ITEM: TIMESTEP
1800
ITEM: NUMBER OF ATOMS
2
ITEM: BOX BOUNDS pp pp pp
1.0000000000000000e-03 9.9900000000000000e-01
1.0000000000000000e-03 9.9900000000000000e-01
1.0000000000000000e-03 9.9900000000000000e-01
ITEM: ATOMS id type xs ys zs 
1 1 0.0740678 0.414068 0.187504 
2 1 0.468165 0.893956 0.781992 
ITEM: TIMESTEP
1900
ITEM: NUMBER OF ATOMS
2
ITEM: BOX BOUNDS pp pp pp
1.0000000000000000e-03 9.9900000000000000e-01
1.0000000000000000e-03 9.9900000000000000e-01
1.0000000000000000e-03 9.9900000000000000e-01
ITEM: ATOMS id type xs ys zs 
1 1 1.0118 0.434606 0.125531 
2 1 0.530431 0.873419 0.843965 
ITEM: TIMESTEP
2000
ITEM: NUMBER OF ATOMS
2
ITEM: BOX BOUNDS pp pp pp
1.0000000000000000e-03 9.9900000000000000e-01
1.0000000000000000e-03 9.9900000000000000e-01
1.0000000000000000e-03 9.9900000000000000e-01
ITEM: ATOMS id type xs ys zs 
1 1 0.950964 0.320548 0.306079 
2 1 0.591269 0.987477 0.663418 
ITEM: TIMESTEP
2100
ITEM: NUMBER OF ATOMS
2
ITEM: BOX BOUNDS pp pp pp
1.0000000000000000e-03 9.9900000000000000e-01
1.0000000000000000e-03 9.9900000000000000e-01
1.0000000000000000e-03 9.9900000000000000e-01
ITEM: ATOMS id type xs ys zs 
1 1 0.143643 0.113161 0.301944 
2 1 0.39859 0.194863 0.667553 
ITEM: TIMESTEP
2200
ITEM: NUMBER OF ATOMS
2
ITEM: BOX BOUNDS pp pp pp
1.0000000000000000e-03 9.9900000000000000e-01
1.0000000000000000e-03 9.9900000000000000e-01
1.0000000000000000e-03 9.9900000000000000e-01
ITEM: ATOMS id type xs ys zs 
1 1 0.0779514 0.395373 0.480009 
2 1 0.464281 0.912652 0.489487 
ITEM: TIMESTEP
2300
ITEM: NUMBER OF ATOMS
2
ITEM: BOX BOUNDS pp pp pp
1.0000000000000000e-03 9.9900000000000000e-01
1.0000000000000000e-03 9.9900000000000000e-01
1.0000000000000000e-03 9.9900000000000000e-01
ITEM: ATOMS id type xs ys zs 
1 1 0.993042 0.816196 0.843288 
2 1 0.549191 0.491829 0.126208 
ITEM: TIMESTEP
2400
ITEM: NUMBER OF ATOMS
2
ITEM: BOX BOUNDS pp pp pp
1.0000000000000000e-03 9.9900000000000000e-01
1.0000000000000000e-03 9.9900000000000000e-01
1.0000000000000000e-03 9.9900000000000000e-01
ITEM: ATOMS id type xs ys zs 
1 1 0.0566269 0.549924 0.288179 
2 1 0.485606 0.758101 0.681317 
ITEM: TIMESTEP
2500
ITEM: NUMBER OF ATOMS
2
ITEM: BOX BOUNDS pp pp pp
1.0000000000000000e-03 9.9900000000000000e-01
1.0000000000000000e-03 9.9900000000000000e-01
1.0000000000000000e-03 9.9900000000000000e-01
ITEM: ATOMS id type xs ys zs 
1 1 0.0224256 0.400678 0.207378 
2 1 0.519807 0.907347 0.762118 
ITEM: TIMESTEP
2600
ITEM: NUMBER OF ATOMS
2
ITEM: BOX BOUNDS pp pp pp
1.0000000000000000e-03 9.9900000000000000e-01
1.0000000000000000e-03 9.9900000000000000e-01
1.0000000000000000e-03 9.9900000000000000e-01
ITEM: ATOMS id type xs ys zs 
1 1 0.977029 0.413579 0.250052 
2 1 0.565204 0.894445 0.719445 
ITEM: TIMESTEP
2700
ITEM: NUMBER OF ATOMS
2
ITEM: BOX BOUNDS pp pp pp
1.0000000000000000e-03 9.9900000000000000e-01
1.0000000000000000e-03 9.9900000000000000e-01
1.0000000000000000e-03 9.9900000000000000e-01
ITEM: ATOMS id type xs ys zs 
1 1 0.020537 0.434375 0.35177 
2 1 0.521696 0.87365 0.617726 
ITEM: TIMESTEP
2800
ITEM: NUMBER OF ATOMS
2
ITEM: BOX BOUNDS pp pp pp
1.0000000000000000e-03 9.9900000000000000e-01
1.0000000000000000e-03 9.9900000000000000e-01
1.0000000000000000e-03 9.9900000000000000e-01
ITEM: ATOMS id type xs ys zs 
1 1 0.0026363 0.359047 0.448396 
2 1 0.539597 0.948978 0.5211 
ITEM: TIMESTEP
2900
ITEM: NUMBER OF ATOMS
2
ITEM: BOX BOUNDS pp pp pp
1.0000000000000000e-03 9.9900000000000000e-01
1.0000000000000000e-03 9.9900000000000000e-01
1.0000000000000000e-03 9.9900000000000000e-01
ITEM: ATOMS id type xs ys zs 
1 1 -0.0571054 0.351406 0.437499 
2 1 0.599338 0.956618 0.531997 
ITEM: TIMESTEP
3000
ITEM: NUMBER OF ATOMS
2
ITEM: BOX BOUNDS pp pp pp
1.0000000000000000e-03 9.9900000000000000e-01
1.0000000000000000e-03 9.9900000000000000e-01
1.0000000000000000e-03 9.9900000000000000e-01
ITEM: ATOMS id type xs ys zs 
1 1 0.0691665 0.399103 0.297832 
2 1 0.473066 0.908921 0.671664 
ITEM: TIMESTEP
3100
ITEM: NUMBER OF ATOMS
2
ITEM: BOX BOUNDS pp pp pp
1.0000000000000000e-03 9.9900000000000000e-01
1.0000000000000000e-03 9.9900000000000000e-01
1.0000000000000000e-03 9.9900000000000000e-01
ITEM: ATOMS id type xs ys zs 
1 1 0.0528541 0.451528 0.130778 
2 1 0.489379 0.856497 0.838718 
ITEM: TIMESTEP
3200
ITEM: NUMBER OF ATOMS
2
ITEM: BOX BOUNDS pp pp pp
1.0000000000000000e-03 9.9900000000000000e-01
1.0000000000000000e-03 9.9900000000000000e-01
1.0000000000000000e-03 9.9900000000000000e-01
ITEM: ATOMS id type xs ys zs 
1 1 0.118281 0.378502 0.888254 
2 1 0.423951 0.929522 0.0812426 
ITEM: TIMESTEP
3300
ITEM: NUMBER OF ATOMS
2
ITEM: BOX BOUNDS pp pp pp
1.0000000000000000e-03 9.9900000000000000e-01
1.0000000000000000e-03 9.9900000000000000e-01
1.0000000000000000e-03 9.9900000000000000e-01
ITEM: ATOMS id type xs ys zs 
1 1 0.526772 0.356172 0.858236 
2 1 0.0154605 0.951852 0.11126 
ITEM: TIMESTEP
3400
ITEM: NUMBER OF ATOMS
2
ITEM: BOX BOUNDS pp pp pp
1.0000000000000000e-03 9.9900000000000000e-01
1.0000000000000000e-03 9.9900000000000000e-01
1.0000000000000000e-03 9.9900000000000000e-01
ITEM: ATOMS id type xs ys zs 
1 1 0.495527 0.326379 0.82052 
2 1 0.0467062 -0.0183541 0.148976 
ITEM: TIMESTEP
3500
ITEM: NUMBER OF ATOMS
2
ITEM: BOX BOUNDS pp pp pp
1.0000000000000000e-03 9.9900000000000000e-01
1.0000000000000000e-03 9.9900000000000000e-01
1.0000000000000000e-03 9.9900000000000000e-01
ITEM: ATOMS id type xs ys zs 
1 1 0.493415 0.413734 0.91097 
2 1 0.0488183 0.894291 0.0585258 
ITEM: TIMESTEP
3600
ITEM: NUMBER OF ATOMS
2
ITEM: BOX BOUNDS pp pp pp
1.0000000000000000e-03 9.9900000000000000e-01
1.0000000000000000e-03 9.9900000000000000e-01
1.0000000000000000e-03 9.9900000000000000e-01
ITEM: ATOMS id type xs ys zs 
1 1 0.563441 0.566607 0.786197 
2 1 0.978792 0.741418 0.183299 
ITEM: TIMESTEP
3700
ITEM: NUMBER OF ATOMS
2
ITEM: BOX BOUNDS pp pp pp
1.0000000000000000e-03 9.9900000000000000e-01
1.0000000000000000e-03 9.9900000000000000e-01
1.0000000000000000e-03 9.9900000000000000e-01
ITEM: ATOMS id type xs ys zs 
1 1 0.537875 0.404379 0.668437 
2 1 1.00436 0.903646 0.301059 
ITEM: TIMESTEP
3800
ITEM: NUMBER OF ATOMS
2
ITEM: BOX BOUNDS pp pp pp
1.0000000000000000e-03 9.9900000000000000e-01
1.0000000000000000e-03 9.9900000000000000e-01
1.0000000000000000e-03 9.9900000000000000e-01
ITEM: ATOMS id type xs ys zs 
1 1 0.567161 0.392428 0.258359 
2 1 0.975072 0.915596 0.711137 
ITEM: TIMESTEP
3900
ITEM: NUMBER OF ATOMS
2
ITEM: BOX BOUNDS pp pp pp
1.0000000000000000e-03 9.9900000000000000e-01
1.0000000000000000e-03 9.9900000000000000e-01
1.0000000000000000e-03 9.9900000000000000e-01
ITEM: ATOMS id type xs ys zs 
1 1 0.0704553 0.387579 0.212613 
2 1 0.471778 0.920446 0.756883 
ITEM: TIMESTEP
4000
ITEM: NUMBER OF ATOMS
2
ITEM: BOX BOUNDS pp pp pp
1.0000000000000000e-03 9.9900000000000000e-01
1.0000000000000000e-03 9.9900000000000000e-01
1.0000000000000000e-03 9.9900000000000000e-01
ITEM: ATOMS id type xs ys zs 
1 1 0.83356 0.399623 0.401387 
2 1 0.708673 0.908402 0.568109 
ITEM: TIMESTEP
4100
ITEM: NUMBER OF ATOMS
2
ITEM: BOX BOUNDS pp pp pp
1.0000000000000000e-03 9.9900000000000000e-01
1.0000000000000000e-03 9.9900000000000000e-01
1.0000000000000000e-03 9.9900000000000000e-01
ITEM: ATOMS id type xs ys zs 
1 1 0.0983571 0.662543 0.312009 
2 1 0.443876 0.645481 0.657487 
ITEM: TIMESTEP
4200
ITEM: NUMBER OF ATOMS
2
ITEM: BOX BOUNDS pp pp pp
1.0000000000000000e-03 9.9900000000000000e-01
1.0000000000000000e-03 9.9900000000000000e-01
1.0000000000000000e-03 9.9900000000000000e-01
ITEM: ATOMS id type xs ys zs 
1 1 0.914771 0.262599 0.886376 
2 1 0.627462 0.0454252 0.0831202 
ITEM: TIMESTEP
4300
ITEM: NUMBER OF ATOMS
2
ITEM: BOX BOUNDS pp pp pp
1.0000000000000000e-03 9.9900000000000000e-01
1.0000000000000000e-03 9.9900000000000000e-01
1.0000000000000000e-03 9.9900000000000000e-01
ITEM: ATOMS id type xs ys zs 
1 1 0.947326 0.418941 0.19019 
2 1 0.594907 0.889084 0.779306 
ITEM: TIMESTEP
4400
ITEM: NUMBER OF ATOMS
2
ITEM: BOX BOUNDS pp pp pp
1.0000000000000000e-03 9.9900000000000000e-01
1.0000000000000000e-03 9.9900000000000000e-01
1.0000000000000000e-03 9.9900000000000000e-01
ITEM: ATOMS id type xs ys zs 
1 1 0.966066 0.590467 0.14831 
2 1 0.576167 0.717558 0.821186 
ITEM: TIMESTEP
4500
ITEM: NUMBER OF ATOMS
2
ITEM: BOX BOUNDS pp pp pp
1.0000000000000000e-03 9.9900000000000000e-01
1.0000000000000000e-03 9.9900000000000000e-01
1.0000000000000000e-03 9.9900000000000000e-01
ITEM: ATOMS id type xs ys zs 
1 1 0.0163884 0.414043 0.291398 
2 1 0.525844 0.893981 0.678099 
ITEM: TIMESTEP
4600
ITEM: NUMBER OF ATOMS
2
ITEM: BOX BOUNDS pp pp pp
1.0000000000000000e-03 9.9900000000000000e-01
1.0000000000000000e-03 9.9900000000000000e-01
1.0000000000000000e-03 9.9900000000000000e-01
ITEM: ATOMS id type xs ys zs 
1 1 0.0457723 0.290134 0.698875 
2 1 0.496461 1.01789 0.270621 
ITEM: TIMESTEP
4700
ITEM: NUMBER OF ATOMS
2
ITEM: BOX BOUNDS pp pp pp
1.0000000000000000e-03 9.9900000000000000e-01
1.0000000000000000e-03 9.9900000000000000e-01
1.0000000000000000e-03 9.9900000000000000e-01
ITEM: ATOMS id type xs ys zs 
1 1 0.949874 0.343578 0.780369 
2 1 0.592359 0.964447 0.189128 
ITEM: TIMESTEP
4800
ITEM: NUMBER OF ATOMS
2
ITEM: BOX BOUNDS pp pp pp
1.0000000000000000e-03 9.9900000000000000e-01
1.0000000000000000e-03 9.9900000000000000e-01
1.0000000000000000e-03 9.9900000000000000e-01
ITEM: ATOMS id type xs ys zs 
1 1 1.03783 0.375304 0.684924 
2 1 0.504407 -0.0672792 0.284572 
ITEM: TIMESTEP
4900
ITEM: NUMBER OF ATOMS
2
ITEM: BOX BOUNDS pp pp pp
1.0000000000000000e-03 9.9900000000000000e-01
1.0000000000000000e-03 9.9900000000000000e-01
1.0000000000000000e-03 9.9900000000000000e-01
ITEM: ATOMS id type xs ys zs 
1 1 1.06455 0.235032 0.768579 
2 1 0.477679 0.0729922 0.200917 
ITEM: TIMESTEP
5000
ITEM: NUMBER OF ATOMS
2
ITEM: BOX BOUNDS pp pp pp
1.0000000000000000e-03 9.9900000000000000e-01
1.0000000000000000e-03 9.9900000000000000e-01
1.0000000000000000e-03 9.9900000000000000e-01
ITEM: ATOMS id type xs ys zs 
1 1 0.172468 0.505685 0.600586 
2 1 0.369765 0.80234 0.36891 
ITEM: TIMESTEP
5100
ITEM: NUMBER OF ATOMS
2
ITEM: BOX BOUNDS pp pp pp
1.0000000000000000e-03 9.9900000000000000e-01
1.0000000000000000e-03 9.9900000000000000e-01
1.0000000000000000e-03 9.9900000000000000e-01
ITEM: ATOMS id type xs ys zs 
1 1 0.0522677 0.312377 0.739013 
2 1 0.489965 0.995647 0.230483 
ITEM: TIMESTEP
5200
ITEM: NUMBER OF ATOMS
2
ITEM: BOX BOUNDS pp pp pp
1.0000000000000000e-03 9.9900000000000000e-01
1.0000000000000000e-03 9.9900000000000000e-01
1.0000000000000000e-03 9.9900000000000000e-01
ITEM: ATOMS id type xs ys zs 
1 1 0.73607 0.406954 0.822357 
2 1 0.806163 0.901071 0.14714 
ITEM: TIMESTEP
5300
ITEM: NUMBER OF ATOMS
2
ITEM: BOX BOUNDS pp pp pp
1.0000000000000000e-03 9.9900000000000000e-01
1.0000000000000000e-03 9.9900000000000000e-01
1.0000000000000000e-03 9.9900000000000000e-01
ITEM: ATOMS id type xs ys zs 
1 1 1.13009 0.398305 0.714834 
2 1 0.412147 0.90972 0.254662 
ITEM: TIMESTEP
5400
ITEM: NUMBER OF ATOMS
2
ITEM: BOX BOUNDS pp pp pp
1.0000000000000000e-03 9.9900000000000000e-01
1.0000000000000000e-03 9.9900000000000000e-01
1.0000000000000000e-03 9.9900000000000000e-01
ITEM: ATOMS id type xs ys zs 
1 1 0.167288 0.452938 0.692152 
2 1 0.374945 0.855086 0.277345 
ITEM: TIMESTEP
5500
ITEM: NUMBER OF ATOMS
2
ITEM: BOX BOUNDS pp pp pp
1.0000000000000000e-03 9.9900000000000000e-01
1.0000000000000000e-03 9.9900000000000000e-01
1.0000000000000000e-03 9.9900000000000000e-01
ITEM: ATOMS id type xs ys zs 
1 1 0.0610629 0.472868 0.852358 
2 1 0.48117 0.835156 0.117138 
ITEM: TIMESTEP
5600
ITEM: NUMBER OF ATOMS
2
ITEM: BOX BOUNDS pp pp pp
1.0000000000000000e-03 9.9900000000000000e-01
1.0000000000000000e-03 9.9900000000000000e-01
1.0000000000000000e-03 9.9900000000000000e-01
ITEM: ATOMS id type xs ys zs 
1 1 0.0865065 0.471955 0.929662 
2 1 0.455726 0.836069 0.0398341 
ITEM: TIMESTEP
5700
ITEM: NUMBER OF ATOMS
2
ITEM: BOX BOUNDS pp pp pp
1.0000000000000000e-03 9.9900000000000000e-01
1.0000000000000000e-03 9.9900000000000000e-01
1.0000000000000000e-03 9.9900000000000000e-01
ITEM: ATOMS id type xs ys zs 
1 1 0.859037 0.24046 0.862111 
2 1 0.683196 0.0675651 0.107385 
ITEM: TIMESTEP
5800
ITEM: NUMBER OF ATOMS
2
ITEM: BOX BOUNDS pp pp pp
1.0000000000000000e-03 9.9900000000000000e-01
1.0000000000000000e-03 9.9900000000000000e-01
1.0000000000000000e-03 9.9900000000000000e-01
ITEM: ATOMS id type xs ys zs 
1 1 1.01923 0.422178 0.776543 
2 1 0.523001 0.885847 0.192953 
ITEM: TIMESTEP
5900
ITEM: NUMBER OF ATOMS
2
ITEM: BOX BOUNDS pp pp pp
1.0000000000000000e-03 9.9900000000000000e-01
1.0000000000000000e-03 9.9900000000000000e-01
1.0000000000000000e-03 9.9900000000000000e-01
ITEM: ATOMS id type xs ys zs 
1 1 0.0857791 0.381615 0.643734 
2 1 0.456454 0.92641 0.325762 
ITEM: TIMESTEP
6000
ITEM: NUMBER OF ATOMS
2
ITEM: BOX BOUNDS pp pp pp
1.0000000000000000e-03 9.9900000000000000e-01
1.0000000000000000e-03 9.9900000000000000e-01
1.0000000000000000e-03 9.9900000000000000e-01
ITEM: ATOMS id type xs ys zs 
1 1 -0.0170041 0.374313 0.825762 
2 1 0.559237 0.933712 0.143734 
ITEM: TIMESTEP
6100
ITEM: NUMBER OF ATOMS
2
ITEM: BOX BOUNDS pp pp pp
1.0000000000000000e-03 9.9900000000000000e-01
1.0000000000000000e-03 9.9900000000000000e-01
1.0000000000000000e-03 9.9900000000000000e-01
ITEM: ATOMS id type xs ys zs 
1 1 0.131057 0.484798 0.781819 
2 1 0.411176 0.823226 0.187678 
ITEM: TIMESTEP
6200
ITEM: NUMBER OF ATOMS
2
ITEM: BOX BOUNDS pp pp pp
1.0000000000000000e-03 9.9900000000000000e-01
1.0000000000000000e-03 9.9900000000000000e-01
1.0000000000000000e-03 9.9900000000000000e-01
ITEM: ATOMS id type xs ys zs 
1 1 0.106282 0.573754 0.853538 
2 1 0.43595 0.73427 0.115958 
ITEM: TIMESTEP
6300
ITEM: NUMBER OF ATOMS
2
ITEM: BOX BOUNDS pp pp pp
1.0000000000000000e-03 9.9900000000000000e-01
1.0000000000000000e-03 9.9900000000000000e-01
1.0000000000000000e-03 9.9900000000000000e-01
ITEM: ATOMS id type xs ys zs 
1 1 0.315783 0.487187 0.86632 
2 1 0.22645 0.820838 0.103176 
ITEM: TIMESTEP
6400
ITEM: NUMBER OF ATOMS
2
ITEM: BOX BOUNDS pp pp pp
1.0000000000000000e-03 9.9900000000000000e-01
1.0000000000000000e-03 9.9900000000000000e-01
1.0000000000000000e-03 9.9900000000000000e-01
ITEM: ATOMS id type xs ys zs 
1 1 0.951704 0.351307 0.882348 
2 1 0.590528 0.956717 0.0871484 
ITEM: TIMESTEP
6500
ITEM: NUMBER OF ATOMS
2
ITEM: BOX BOUNDS pp pp pp
1.0000000000000000e-03 9.9900000000000000e-01
1.0000000000000000e-03 9.9900000000000000e-01
1.0000000000000000e-03 9.9900000000000000e-01
ITEM: ATOMS id type xs ys zs 
1 1 0.897366 0.865066 0.646641 
2 1 0.644867 0.442959 0.322855 
ITEM: TIMESTEP
6600
ITEM: NUMBER OF ATOMS
2
ITEM: BOX BOUNDS pp pp pp
1.0000000000000000e-03 9.9900000000000000e-01
1.0000000000000000e-03 9.9900000000000000e-01
1.0000000000000000e-03 9.9900000000000000e-01
ITEM: ATOMS id type xs ys zs 
1 1 1.00288 0.910387 0.762758 
2 1 0.539355 0.397637 0.206738 
ITEM: TIMESTEP
6700
ITEM: NUMBER OF ATOMS
2
ITEM: BOX BOUNDS pp pp pp
1.0000000000000000e-03 9.9900000000000000e-01
1.0000000000000000e-03 9.9900000000000000e-01
1.0000000000000000e-03 9.9900000000000000e-01
ITEM: ATOMS id type xs ys zs 
1 1 0.104037 0.903193 0.824546 
2 1 0.438196 0.404832 0.14495 
ITEM: TIMESTEP
6800
ITEM: NUMBER OF ATOMS
2
ITEM: BOX BOUNDS pp pp pp
1.0000000000000000e-03 9.9900000000000000e-01
1.0000000000000000e-03 9.9900000000000000e-01
1.0000000000000000e-03 9.9900000000000000e-01
ITEM: ATOMS id type xs ys zs 
1 1 0.834074 0.916063 0.90284 
2 1 0.708159 0.391962 0.0666559 
ITEM: TIMESTEP
6900
ITEM: NUMBER OF ATOMS
2
ITEM: BOX BOUNDS pp pp pp
1.0000000000000000e-03 9.9900000000000000e-01
1.0000000000000000e-03 9.9900000000000000e-01
1.0000000000000000e-03 9.9900000000000000e-01
ITEM: ATOMS id type xs ys zs 
1 1 0.571313 0.745166 0.0485978 
2 1 -0.0290801 0.562858 0.920898 
ITEM: TIMESTEP
7000
ITEM: NUMBER OF ATOMS
2
ITEM: BOX BOUNDS pp pp pp
1.0000000000000000e-03 9.9900000000000000e-01
1.0000000000000000e-03 9.9900000000000000e-01
1.0000000000000000e-03 9.9900000000000000e-01
ITEM: ATOMS id type xs ys zs 
1 1 0.569853 0.540748 0.856151 
2 1 -0.0276203 0.767276 0.113345 
ITEM: TIMESTEP
7100
ITEM: NUMBER OF ATOMS
2
ITEM: BOX BOUNDS pp pp pp
1.0000000000000000e-03 9.9900000000000000e-01
1.0000000000000000e-03 9.9900000000000000e-01
1.0000000000000000e-03 9.9900000000000000e-01
ITEM: ATOMS id type xs ys zs 
1 1 0.512585 0.393531 0.0728627 
2 1 0.0296475 0.914493 0.896634 
ITEM: TIMESTEP
7200
ITEM: NUMBER OF ATOMS
2
ITEM: BOX BOUNDS pp pp pp
1.0000000000000000e-03 9.9900000000000000e-01
1.0000000000000000e-03 9.9900000000000000e-01
1.0000000000000000e-03 9.9900000000000000e-01
ITEM: ATOMS id type xs ys zs 
1 1 0.554815 0.345043 0.971813 
2 1 0.987418 0.962981 -0.00231669 
ITEM: TIMESTEP
7300
ITEM: NUMBER OF ATOMS
2
ITEM: BOX BOUNDS pp pp pp
1.0000000000000000e-03 9.9900000000000000e-01
1.0000000000000000e-03 9.9900000000000000e-01
1.0000000000000000e-03 9.9900000000000000e-01
ITEM: ATOMS id type xs ys zs 
1 1 0.313146 0.328344 0.548567 
2 1 0.229087 0.979681 0.420929 
ITEM: TIMESTEP
7400
ITEM: NUMBER OF ATOMS
2
ITEM: BOX BOUNDS pp pp pp
1.0000000000000000e-03 9.9900000000000000e-01
1.0000000000000000e-03 9.9900000000000000e-01
1.0000000000000000e-03 9.9900000000000000e-01
ITEM: ATOMS id type xs ys zs 
1 1 0.816872 0.337548 0.15368 
2 1 0.725361 -0.0295229 0.815817 
ITEM: TIMESTEP
7500
ITEM: NUMBER OF ATOMS
2
ITEM: BOX BOUNDS pp pp pp
1.0000000000000000e-03 9.9900000000000000e-01
1.0000000000000000e-03 9.9900000000000000e-01
1.0000000000000000e-03 9.9900000000000000e-01
ITEM: ATOMS id type xs ys zs 
1 1 0.571244 0.443639 0.180172 
2 1 0.970989 0.864386 0.789324 
ITEM: TIMESTEP
7600
ITEM: NUMBER OF ATOMS
2
ITEM: BOX BOUNDS pp pp pp
1.0000000000000000e-03 9.9900000000000000e-01
1.0000000000000000e-03 9.9900000000000000e-01
1.0000000000000000e-03 9.9900000000000000e-01
ITEM: ATOMS id type xs ys zs 
1 1 0.802907 0.407212 0.0682989 
2 1 0.739326 0.900813 0.901197 
ITEM: TIMESTEP
7700
ITEM: NUMBER OF ATOMS
2
ITEM: BOX BOUNDS pp pp pp
1.0000000000000000e-03 9.9900000000000000e-01
1.0000000000000000e-03 9.9900000000000000e-01
1.0000000000000000e-03 9.9900000000000000e-01
ITEM: ATOMS id type xs ys zs 
1 1 0.89476 0.502102 0.716636 
2 1 0.647473 0.805923 0.25286 
ITEM: TIMESTEP
7800
ITEM: NUMBER OF ATOMS
2
ITEM: BOX BOUNDS pp pp pp
1.0000000000000000e-03 9.9900000000000000e-01
1.0000000000000000e-03 9.9900000000000000e-01
1.0000000000000000e-03 9.9900000000000000e-01
ITEM: ATOMS id type xs ys zs 
1 1 0.503521 0.384567 0.608502 
2 1 0.0387121 0.923458 0.360994 
ITEM: TIMESTEP
7900
ITEM: NUMBER OF ATOMS
2
ITEM: BOX BOUNDS pp pp pp
1.0000000000000000e-03 9.9900000000000000e-01
1.0000000000000000e-03 9.9900000000000000e-01
1.0000000000000000e-03 9.9900000000000000e-01
ITEM: ATOMS id type xs ys zs 
1 1 0.940478 0.453611 0.279747 
2 1 0.601755 0.854414 0.689749 
ITEM: TIMESTEP
8000
ITEM: NUMBER OF ATOMS
2
ITEM: BOX BOUNDS pp pp pp
1.0000000000000000e-03 9.9900000000000000e-01
1.0000000000000000e-03 9.9900000000000000e-01
1.0000000000000000e-03 9.9900000000000000e-01
ITEM: ATOMS id type xs ys zs 
1 1 0.947831 0.546806 0.383313 
2 1 0.594401 0.761218 0.586183 
ITEM: TIMESTEP
8100
ITEM: NUMBER OF ATOMS
2
ITEM: BOX BOUNDS pp pp pp
1.0000000000000000e-03 9.9900000000000000e-01
1.0000000000000000e-03 9.9900000000000000e-01
1.0000000000000000e-03 9.9900000000000000e-01
ITEM: ATOMS id type xs ys zs 
1 1 0.6975 0.406295 0.502963 
2 1 0.844733 0.901729 0.466533 
ITEM: TIMESTEP
8200
ITEM: NUMBER OF ATOMS
2
ITEM: BOX BOUNDS pp pp pp
1.0000000000000000e-03 9.9900000000000000e-01
1.0000000000000000e-03 9.9900000000000000e-01
1.0000000000000000e-03 9.9900000000000000e-01
ITEM: ATOMS id type xs ys zs 
1 1 0.501452 0.543962 0.162294 
2 1 0.0407806 0.764063 0.807202 
ITEM: TIMESTEP
8300
ITEM: NUMBER OF ATOMS
2
ITEM: BOX BOUNDS pp pp pp
1.0000000000000000e-03 9.9900000000000000e-01
1.0000000000000000e-03 9.9900000000000000e-01
1.0000000000000000e-03 9.9900000000000000e-01
ITEM: ATOMS id type xs ys zs 
1 1 0.57847 0.50218 0.721685 
2 1 0.963763 0.805845 0.247811 
ITEM: TIMESTEP
8400
ITEM: NUMBER OF ATOMS
2
ITEM: BOX BOUNDS pp pp pp
1.0000000000000000e-03 9.9900000000000000e-01
1.0000000000000000e-03 9.9900000000000000e-01
1.0000000000000000e-03 9.9900000000000000e-01
ITEM: ATOMS id type xs ys zs 
1 1 0.633544 0.394113 0.687822 
2 1 0.908689 0.913912 0.281674 
ITEM: TIMESTEP
8500
ITEM: NUMBER OF ATOMS
2
ITEM: BOX BOUNDS pp pp pp
1.0000000000000000e-03 9.9900000000000000e-01
1.0000000000000000e-03 9.9900000000000000e-01
1.0000000000000000e-03 9.9900000000000000e-01
ITEM: ATOMS id type xs ys zs 
1 1 0.531656 0.202859 0.584938 
2 1 1.01058 0.105166 0.384559 
ITEM: TIMESTEP
8600
ITEM: NUMBER OF ATOMS
2
ITEM: BOX BOUNDS pp pp pp
1.0000000000000000e-03 9.9900000000000000e-01
1.0000000000000000e-03 9.9900000000000000e-01
1.0000000000000000e-03 9.9900000000000000e-01
ITEM: ATOMS id type xs ys zs 
1 1 0.428027 0.842904 0.795305 
2 1 0.114206 0.46512 0.174191 
ITEM: TIMESTEP
8700
ITEM: NUMBER OF ATOMS
2
ITEM: BOX BOUNDS pp pp pp
1.0000000000000000e-03 9.9900000000000000e-01
1.0000000000000000e-03 9.9900000000000000e-01
1.0000000000000000e-03 9.9900000000000000e-01
ITEM: ATOMS id type xs ys zs 
1 1 0.390926 0.0736606 0.722366 
2 1 0.151307 0.234364 0.247131 
ITEM: TIMESTEP
8800
ITEM: NUMBER OF ATOMS
2
ITEM: BOX BOUNDS pp pp pp
1.0000000000000000e-03 9.9900000000000000e-01
1.0000000000000000e-03 9.9900000000000000e-01
1.0000000000000000e-03 9.9900000000000000e-01
ITEM: ATOMS id type xs ys zs 
1 1 0.596777 0.928619 0.684471 
2 1 0.945456 0.379405 0.285025 
ITEM: TIMESTEP
8900
ITEM: NUMBER OF ATOMS
2
ITEM: BOX BOUNDS pp pp pp
1.0000000000000000e-03 9.9900000000000000e-01
1.0000000000000000e-03 9.9900000000000000e-01
1.0000000000000000e-03 9.9900000000000000e-01
ITEM: ATOMS id type xs ys zs 
1 1 0.489503 0.911258 0.747306 
2 1 0.0527298 0.396767 0.222191 
ITEM: TIMESTEP
9000
ITEM: NUMBER OF ATOMS
2
ITEM: BOX BOUNDS pp pp pp
1.0000000000000000e-03 9.9900000000000000e-01
1.0000000000000000e-03 9.9900000000000000e-01
1.0000000000000000e-03 9.9900000000000000e-01
ITEM: ATOMS id type xs ys zs 
1 1 0.546715 0.833005 0.720976 
2 1 -0.00448191 0.475019 0.24852 
ITEM: TIMESTEP
9100
ITEM: NUMBER OF ATOMS
2
ITEM: BOX BOUNDS pp pp pp
1.0000000000000000e-03 9.9900000000000000e-01
1.0000000000000000e-03 9.9900000000000000e-01
1.0000000000000000e-03 9.9900000000000000e-01
ITEM: ATOMS id type xs ys zs 
1 1 0.468406 0.94975 0.758826 
2 1 0.0738273 0.358275 0.21067 
ITEM: TIMESTEP
9200
ITEM: NUMBER OF ATOMS
2
ITEM: BOX BOUNDS pp pp pp
1.0000000000000000e-03 9.9900000000000000e-01
1.0000000000000000e-03 9.9900000000000000e-01
1.0000000000000000e-03 9.9900000000000000e-01
ITEM: ATOMS id type xs ys zs 
1 1 0.662937 0.882336 0.717474 
2 1 0.879296 0.425689 0.252023 
ITEM: TIMESTEP
9300
ITEM: NUMBER OF ATOMS
2
ITEM: BOX BOUNDS pp pp pp
1.0000000000000000e-03 9.9900000000000000e-01
1.0000000000000000e-03 9.9900000000000000e-01
1.0000000000000000e-03 9.9900000000000000e-01
ITEM: ATOMS id type xs ys zs 
1 1 0.420184 0.595382 0.757635 
2 1 0.122049 0.712642 0.211862 
ITEM: TIMESTEP
9400
ITEM: NUMBER OF ATOMS
2
ITEM: BOX BOUNDS pp pp pp
1.0000000000000000e-03 9.9900000000000000e-01
1.0000000000000000e-03 9.9900000000000000e-01
1.0000000000000000e-03 9.9900000000000000e-01
ITEM: ATOMS id type xs ys zs 
1 1 0.554981 0.939906 0.654211 
2 1 -0.0127482 0.368119 0.315285 
ITEM: TIMESTEP
9500
ITEM: NUMBER OF ATOMS
2
ITEM: BOX BOUNDS pp pp pp
1.0000000000000000e-03 9.9900000000000000e-01
1.0000000000000000e-03 9.9900000000000000e-01
1.0000000000000000e-03 9.9900000000000000e-01
ITEM: ATOMS id type xs ys zs 
1 1 0.500626 0.478265 0.689271 
2 1 0.0416064 0.829759 0.280225 
ITEM: TIMESTEP
9600
ITEM: NUMBER OF ATOMS
2
ITEM: BOX BOUNDS pp pp pp
1.0000000000000000e-03 9.9900000000000000e-01
1.0000000000000000e-03 9.9900000000000000e-01
1.0000000000000000e-03 9.9900000000000000e-01
ITEM: ATOMS id type xs ys zs 
1 1 0.614722 0.756152 0.755281 
2 1 -0.0724893 0.551872 0.214215 
ITEM: TIMESTEP
9700
ITEM: NUMBER OF ATOMS
2
ITEM: BOX BOUNDS pp pp pp
1.0000000000000000e-03 9.9900000000000000e-01
1.0000000000000000e-03 9.9900000000000000e-01
1.0000000000000000e-03 9.9900000000000000e-01
ITEM: ATOMS id type xs ys zs 
1 1 0.538312 0.897011 0.858534 
2 1 0.0039206 0.411014 0.110962 
ITEM: TIMESTEP
9800
ITEM: NUMBER OF ATOMS
2
ITEM: BOX BOUNDS pp pp pp
1.0000000000000000e-03 9.9900000000000000e-01
1.0000000000000000e-03 9.9900000000000000e-01
1.0000000000000000e-03 9.9900000000000000e-01
ITEM: ATOMS id type xs ys zs 
1 1 0.473509 0.868128 0.761466 
2 1 1.06872 0.439896 0.20803 
ITEM: TIMESTEP
9900
ITEM: NUMBER OF ATOMS
2
ITEM: BOX BOUNDS pp pp pp
1.0000000000000000e-03 9.9900000000000000e-01
1.0000000000000000e-03 9.9900000000000000e-01
1.0000000000000000e-03 9.9900000000000000e-01
ITEM: ATOMS id type xs ys zs 
1 1 0.519457 0.899995 0.728263 
2 1 0.0227762 0.40803 0.241233 
ITEM: TIMESTEP
10000
ITEM: NUMBER OF ATOMS
2
ITEM: BOX BOUNDS pp pp pp
1.0000000000000000e-03 9.9900000000000000e-01
1.0000000000000000e-03 9.9900000000000000e-01
1.0000000000000000e-03 9.9900000000000000e-01
ITEM: ATOMS id type xs ys zs 
1 1 0.585064 0.829864 0.733483 
2 1 -0.0428314 0.478161 0.236013 
ITEM: TIMESTEP
10100
ITEM: NUMBER OF ATOMS
2
ITEM: BOX BOUNDS pp pp pp
1.0000000000000000e-03 9.9900000000000000e-01
1.0000000000000000e-03 9.9900000000000000e-01
1.0000000000000000e-03 9.9900000000000000e-01
ITEM: ATOMS id type xs ys zs 
1 1 0.631103 0.754663 0.769379 
2 1 0.91113 0.553362 0.200117 
ITEM: TIMESTEP
10200
ITEM: NUMBER OF ATOMS
2
ITEM: BOX BOUNDS pp pp pp
1.0000000000000000e-03 9.9900000000000000e-01
1.0000000000000000e-03 9.9900000000000000e-01
1.0000000000000000e-03 9.9900000000000000e-01
ITEM: ATOMS id type xs ys zs 
1 1 0.310736 0.962178 0.784837 
2 1 0.231497 0.345847 0.18466 
ITEM: TIMESTEP
10300
ITEM: NUMBER OF ATOMS
2
ITEM: BOX BOUNDS pp pp pp
1.0000000000000000e-03 9.9900000000000000e-01
1.0000000000000000e-03 9.9900000000000000e-01
1.0000000000000000e-03 9.9900000000000000e-01
ITEM: ATOMS id type xs ys zs 
1 1 0.522039 0.958304 0.792738 
2 1 0.0201942 0.34972 0.176759 
ITEM: TIMESTEP
10400
ITEM: NUMBER OF ATOMS
2
ITEM: BOX BOUNDS pp pp pp
1.0000000000000000e-03 9.9900000000000000e-01
1.0000000000000000e-03 9.9900000000000000e-01
1.0000000000000000e-03 9.9900000000000000e-01
ITEM: ATOMS id type xs ys zs 
1 1 0.448573 0.521793 0.82408 
2 1 0.0936598 0.786231 0.145416 
ITEM: TIMESTEP
10500
ITEM: NUMBER OF ATOMS
2
ITEM: BOX BOUNDS pp pp pp
1.0000000000000000e-03 9.9900000000000000e-01
1.0000000000000000e-03 9.9900000000000000e-01
1.0000000000000000e-03 9.9900000000000000e-01
ITEM: ATOMS id type xs ys zs 
1 1 0.658825 0.542559 0.202396 
2 1 0.883408 0.765466 0.7671 
ITEM: TIMESTEP
10600
ITEM: NUMBER OF ATOMS
2
ITEM: BOX BOUNDS pp pp pp
1.0000000000000000e-03 9.9900000000000000e-01
1.0000000000000000e-03 9.9900000000000000e-01
1.0000000000000000e-03 9.9900000000000000e-01
ITEM: ATOMS id type xs ys zs 
1 1 0.692796 0.452625 0.0856842 
2 1 0.849436 0.8554 0.883812 
ITEM: TIMESTEP
10700
ITEM: NUMBER OF ATOMS
2
ITEM: BOX BOUNDS pp pp pp
1.0000000000000000e-03 9.9900000000000000e-01
1.0000000000000000e-03 9.9900000000000000e-01
1.0000000000000000e-03 9.9900000000000000e-01
ITEM: ATOMS id type xs ys zs 
1 1 0.863539 0.264826 0.305737 
2 1 0.678694 0.0431989 0.66376 
ITEM: TIMESTEP
10800
ITEM: NUMBER OF ATOMS
2
ITEM: BOX BOUNDS pp pp pp
1.0000000000000000e-03 9.9900000000000000e-01
1.0000000000000000e-03 9.9900000000000000e-01
1.0000000000000000e-03 9.9900000000000000e-01
ITEM: ATOMS id type xs ys zs 
1 1 0.796251 0.427954 0.268897 
2 1 0.745982 0.88007 0.700599 
ITEM: TIMESTEP
10900
ITEM: NUMBER OF ATOMS
2
ITEM: BOX BOUNDS pp pp pp