ITEM: TIMESTEP
1000
ITEM: NUMBER OF ATOMS
4
ITEM: BOX BOUNDS pp pp pp
1.0000000000000000e-03 9.9900000000000000e-01
1.0000000000000000e-03 9.9900000000000000e-01
1.0000000000000000e-03 9.9900000000000000e-01
ITEM: ATOMS id type xs ys zs 
1 1 0.99971 0.500734 0.774914 
2 1 0.312865 0.573651 0.293285 
3 1 0.213726 0.407487 0.894396 
4 1 0.53311 0.0313701 0.10117 
ITEM: TIMESTEP
1100
ITEM: NUMBER OF ATOMS
4
ITEM: BOX BOUNDS pp pp pp
1.0000000000000000e-03 9.9900000000000000e-01
1.0000000000000000e-03 9.9900000000000000e-01
1.0000000000000000e-03 9.9900000000000000e-01
ITEM: ATOMS id type xs ys zs 
1 1 0.874661 0.128486 0.429787 
2 1 0.0535833 -0.0315397 0.504337 
3 1 0.39563 0.585361 0.132422 
4 1 0.735536 0.830935 -0.00278161 
ITEM: TIMESTEP
1200
ITEM: NUMBER OF ATOMS
4
ITEM: BOX BOUNDS pp pp pp
1.0000000000000000e-03 9.9900000000000000e-01
1.0000000000000000e-03 9.9900000000000000e-01
1.0000000000000000e-03 9.9900000000000000e-01
ITEM: ATOMS id type xs ys zs 
1 1 0.46267 0.0636108 0.813691 
2 1 0.875341 0.218472 0.488703 
3 1 0.604544 0.633226 0.682331 
4 1 0.116856 0.597934 0.0790406 
ITEM: TIMESTEP
1300
ITEM: NUMBER OF ATOMS
4
ITEM: BOX BOUNDS pp pp pp
1.0000000000000000e-03 9.9900000000000000e-01
1.0000000000000000e-03 9.9900000000000000e-01
1.0000000000000000e-03 9.9900000000000000e-01
ITEM: ATOMS id type xs ys zs 
1 1 0.038017 0.471558 0.273285 
2 1 0.403504 0.714509 0.197986 
3 1 0.586725 0.123379 0.701399 
4 1 0.0311647 0.203796 0.891095 
ITEM: TIMESTEP
1400
ITEM: NUMBER OF ATOMS
4
ITEM: BOX BOUNDS pp pp pp
1.0000000000000000e-03 9.9900000000000000e-01
1.0000000000000000e-03 9.9900000000000000e-01
1.0000000000000000e-03 9.9900000000000000e-01
ITEM: ATOMS id type xs ys zs 
1 1 0.94895 0.33789 0.0805189 
2 1 0.665435 0.870109 0.317322 
3 1 0.406981 0.956823 0.798222 
4 1 0.038045 0.34842 0.867702 
ITEM: TIMESTEP
1500
ITEM: NUMBER OF ATOMS
4
ITEM: BOX BOUNDS pp pp pp
1.0000000000000000e-03 9.9900000000000000e-01
1.0000000000000000e-03 9.9900000000000000e-01
1.0000000000000000e-03 9.9900000000000000e-01
ITEM: ATOMS id type xs ys zs 
1 1 1.01623 0.0548226 0.64903 
2 1 0.651403 0.171931 0.339653 
3 1 0.318076 0.460973 0.0999518 
4 1 0.0737023 0.825516 0.975131 
ITEM: TIMESTEP
1600
ITEM: NUMBER OF ATOMS
4
ITEM: BOX BOUNDS pp pp pp
1.0000000000000000e-03 9.9900000000000000e-01
1.0000000000000000e-03 9.9900000000000000e-01
1.0000000000000000e-03 9.9900000000000000e-01
ITEM: ATOMS id type xs ys zs 
1 1 0.547669 0.608166 0.203873 
2 1 0.847463 0.0809193 0.210763 
3 1 0.514709 0.924241 0.795831 
4 1 0.14957 0.899917 0.853298 
ITEM: TIMESTEP
1700
ITEM: NUMBER OF ATOMS
4
ITEM: BOX BOUNDS pp pp pp
1.0000000000000000e-03 9.9900000000000000e-01
1.0000000000000000e-03 9.9900000000000000e-01
1.0000000000000000e-03 9.9900000000000000e-01
ITEM: ATOMS id type xs ys zs 
1 1 0.935607 0.590511 0.72895 
2 1 0.420141 0.0237751 0.279367 
3 1 0.606599 0.582835 0.218996 
4 1 0.0970638 0.316121 0.836452 
ITEM: TIMESTEP
1800
ITEM: NUMBER OF ATOMS
4
ITEM: BOX BOUNDS pp pp pp
1.0000000000000000e-03 9.9900000000000000e-01
1.0000000000000000e-03 9.9900000000000000e-01
1.0000000000000000e-03 9.9900000000000000e-01
ITEM: ATOMS id type xs ys zs 
1 1 0.253766 0.596486 0.542632 
2 1 0.760371 0.305117 0.118175 
3 1 0.217846 0.927577 0.647355 
4 1 0.827427 0.684062 0.755603 
ITEM: TIMESTEP
1900
ITEM: NUMBER OF ATOMS
4
ITEM: BOX BOUNDS pp pp pp
1.0000000000000000e-03 9.9900000000000000e-01
1.0000000000000000e-03 9.9900000000000000e-01
1.0000000000000000e-03 9.9900000000000000e-01
ITEM: ATOMS id type xs ys zs 
1 1 0.151299 0.0623804 0.581912 
2 1 0.61445 0.554946 0.915326 
3 1 0.273139 0.717617 0.502517 
4 1 0.0205228 0.178299 0.0640093 
ITEM: TIMESTEP
2000
ITEM: NUMBER OF ATOMS
4
ITEM: BOX BOUNDS pp pp pp
1.0000000000000000e-03 9.9900000000000000e-01
1.0000000000000000e-03 9.9900000000000000e-01
1.0000000000000000e-03 9.9900000000000000e-01
ITEM: ATOMS id type xs ys zs 
1 1 0.296204 0.0690974 0.317367 
2 1 0.97485 0.671768 0.039666 
3 1 0.167609 0.463383 0.672562 
4 1 0.620747 0.308994 0.0341702 
ITEM: TIMESTEP
2100
ITEM: NUMBER OF ATOMS
4
ITEM: BOX BOUNDS pp pp pp
1.0000000000000000e-03 9.9900000000000000e-01
1.0000000000000000e-03 9.9900000000000000e-01
1.0000000000000000e-03 9.9900000000000000e-01
ITEM: ATOMS id type xs ys zs 
1 1 0.86777 0.853976 -0.00648813 
2 1 0.67081 0.715154 0.559039 
3 1 0.453048 0.871913 0.0957176 
4 1 0.0677821 0.0721994 0.415497 
ITEM: TIMESTEP
2200
ITEM: NUMBER OF ATOMS
4
ITEM: BOX BOUNDS pp pp pp
1.0000000000000000e-03 9.9900000000000000e-01
1.0000000000000000e-03 9.9900000000000000e-01
1.0000000000000000e-03 9.9900000000000000e-01
ITEM: ATOMS id type xs ys zs 
1 1 0.466792 0.1356 0.367246 
2 1 0.145157 0.158612 0.943826 
3 1 0.922065 0.701527 0.716627 
4 1 0.525396 0.517504 0.0360658 
ITEM: TIMESTEP
2300
ITEM: NUMBER OF ATOMS
4
ITEM: BOX BOUNDS pp pp pp
1.0000000000000000e-03 9.9900000000000000e-01
1.0000000000000000e-03 9.9900000000000000e-01
1.0000000000000000e-03 9.9900000000000000e-01
ITEM: ATOMS id type xs ys zs 
1 1 -0.00898987 0.885112 0.828676 
2 1 0.686369 0.193696 0.801014 
3 1 0.505144 0.913732 0.142832 
4 1 0.876888 0.520702 0.291243 
ITEM: TIMESTEP
2400
ITEM: NUMBER OF ATOMS
4
ITEM: BOX BOUNDS pp pp pp
1.0000000000000000e-03 9.9900000000000000e-01
1.0000000000000000e-03 9.9900000000000000e-01
1.0000000000000000e-03 9.9900000000000000e-01
ITEM: ATOMS id type xs ys zs 
1 1 0.789361 0.541901 0.851362 
2 1 0.703845 0.761417 0.273349 
3 1 0.436708 0.194518 0.271743 
4 1 0.129497 0.0154063 0.66731 
ITEM: TIMESTEP
2500
ITEM: NUMBER OF ATOMS
4
ITEM: BOX BOUNDS pp pp pp
1.0000000000000000e-03 9.9900000000000000e-01
1.0000000000000000e-03 9.9900000000000000e-01
1.0000000000000000e-03 9.9900000000000000e-01
ITEM: ATOMS id type xs ys zs 
1 1 0.906824 0.329301 0.0617998 
2 1 0.541799 0.799116 0.837965 
3 1 0.0610474 0.0424509 0.847162 
4 1 0.54974 0.342375 0.316838 
ITEM: TIMESTEP
2600
ITEM: NUMBER OF ATOMS
4
ITEM: BOX BOUNDS pp pp pp
1.0000000000000000e-03 9.9900000000000000e-01
1.0000000000000000e-03 9.9900000000000000e-01
1.0000000000000000e-03 9.9900000000000000e-01
ITEM: ATOMS id type xs ys zs 
1 1 0.829897 0.866074 0.603235 
2 1 0.692288 0.478934 0.774533 
3 1 0.327639 -0.00460751 0.211279 
4 1 0.209587 0.172842 0.474718 
ITEM: TIMESTEP
2700
ITEM: NUMBER OF ATOMS
4
ITEM: BOX BOUNDS pp pp pp
1.0000000000000000e-03 9.9900000000000000e-01
1.0000000000000000e-03 9.9900000000000000e-01
1.0000000000000000e-03 9.9900000000000000e-01
ITEM: ATOMS id type xs ys zs 
1 1 0.35322 0.15038 0.0846976 
2 1 0.0274146 0.548935 0.739513 
3 1 0.114418 -0.0794476 0.787006 
4 1 0.564358 0.893375 0.452549 
ITEM: TIMESTEP
2800
ITEM: NUMBER OF ATOMS
4
ITEM: BOX BOUNDS pp pp pp
1.0000000000000000e-03 9.9900000000000000e-01
1.0000000000000000e-03 9.9900000000000000e-01
1.0000000000000000e-03 9.9900000000000000e-01
ITEM: ATOMS id type xs ys zs 
1 1 0.347437 0.155639 -0.0122734 
2 1 0.667162 0.283913 0.599952 
3 1 -0.00657922 0.805661 0.442692 
4 1 1.05139 0.268029 1.03339 
ITEM: TIMESTEP
2900
ITEM: NUMBER OF ATOMS
4
ITEM: BOX BOUNDS pp pp pp
1.0000000000000000e-03 9.9900000000000000e-01
1.0000000000000000e-03 9.9900000000000000e-01
1.0000000000000000e-03 9.9900000000000000e-01
ITEM: ATOMS id type xs ys zs 
1 1 0.298454 0.911082 0.0307233 
2 1 0.00468072 0.495217 0.680937 
3 1 0.680837 0.897593 0.300735 
4 1 0.075439 0.20935 0.0513696 
ITEM: TIMESTEP
3000
ITEM: NUMBER OF ATOMS
4
ITEM: BOX BOUNDS pp pp pp
1.0000000000000000e-03 9.9900000000000000e-01
1.0000000000000000e-03 9.9900000000000000e-01
1.0000000000000000e-03 9.9900000000000000e-01
ITEM: ATOMS id type xs ys zs 
1 1 0.512427 0.198898 0.978511 
2 1 0.000907778 0.0698872 0.799921 
3 1 0.569454 0.51602 0.448702 
4 1 0.976622 0.728437 0.836631 
ITEM: TIMESTEP
3100
ITEM: NUMBER OF ATOMS
4
ITEM: BOX BOUNDS pp pp pp
1.0000000000000000e-03 9.9900000000000000e-01
1.0000000000000000e-03 9.9900000000000000e-01
1.0000000000000000e-03 9.9900000000000000e-01
ITEM: ATOMS id type xs ys zs 
1 1 0.0424587 0.655595 0.149285 
2 1 0.640174 0.326667 0.415986 
3 1 0.970991 0.50094 0.551196 
4 1 0.405787 0.0300401 0.947299 
ITEM: TIMESTEP
3200
ITEM: NUMBER OF ATOMS
4
ITEM: BOX BOUNDS pp pp pp
1.0000000000000000e-03 9.9900000000000000e-01
1.0000000000000000e-03 9.9900000000000000e-01
1.0000000000000000e-03 9.9900000000000000e-01
ITEM: ATOMS id type xs ys zs 
1 1 -0.0297895 0.133182 0.297931 
2 1 0.191192 0.66452 0.307886 
3 1 0.622905 0.321686 0.864341 
4 1 0.275104 0.393854 0.593606 
ITEM: TIMESTEP
3300
ITEM: NUMBER OF ATOMS
4
ITEM: BOX BOUNDS pp pp pp
1.0000000000000000e-03 9.9900000000000000e-01
1.0000000000000000e-03 9.9900000000000000e-01
1.0000000000000000e-03 9.9900000000000000e-01
ITEM: ATOMS id type xs ys zs 
1 1 0.613015 0.354177 0.0151266 
2 1 0.421769 0.663246 0.742638 
3 1 0.894665 0.250078 0.318034 
4 1 0.129961 0.245741 -0.0120328 
ITEM: TIMESTEP
3400
ITEM: NUMBER OF ATOMS
4
ITEM: BOX BOUNDS pp pp pp
1.0000000000000000e-03 9.9900000000000000e-01
1.0000000000000000e-03 9.9900000000000000e-01
1.0000000000000000e-03 9.9900000000000000e-01
ITEM: ATOMS id type xs ys zs 
1 1 0.465716 0.453066 0.0855205 
2 1 0.76681 0.56007 0.619129 
3 1 -0.0291121 0.377906 0.299531 
4 1 0.855996 0.122199 1.05958 
ITEM: TIMESTEP
3500
ITEM: NUMBER OF ATOMS
4
ITEM: BOX BOUNDS pp pp pp
1.0000000000000000e-03 9.9900000000000000e-01
1.0000000000000000e-03 9.9900000000000000e-01
1.0000000000000000e-03 9.9900000000000000e-01
ITEM: ATOMS id type xs ys zs 
1 1 0.651698 0.140674 0.280721 
2 1 0.707031 0.981993 0.00122282 
3 1 0.577865 0.870274 0.27931 
4 1 0.122817 0.5203 0.502512 
ITEM: TIMESTEP
3600
ITEM: NUMBER OF ATOMS
4
ITEM: BOX BOUNDS pp pp pp
1.0000000000000000e-03 9.9900000000000000e-01
1.0000000000000000e-03 9.9900000000000000e-01
1.0000000000000000e-03 9.9900000000000000e-01
ITEM: ATOMS id type xs ys zs 
1 1 0.685777 0.115029 0.125651 
2 1 0.855932 0.201171 0.463064 
3 1 0.181037 0.758475 0.887333 
4 1 0.336666 0.438567 0.587717 
ITEM: TIMESTEP
3700
ITEM: NUMBER OF ATOMS
4
ITEM: BOX BOUNDS pp pp pp
1.0000000000000000e-03 9.9900000000000000e-01
1.0000000000000000e-03 9.9900000000000000e-01
1.0000000000000000e-03 9.9900000000000000e-01
ITEM: ATOMS id type xs ys zs 
1 1 0.662395 0.891444 0.714006 
2 1 0.0885834 0.584546 0.38307 
3 1 0.972306 0.162508 0.884511 
4 1 0.336126 0.874743 0.0821779 
ITEM: TIMESTEP
3800
ITEM: NUMBER OF ATOMS
4
ITEM: BOX BOUNDS pp pp pp
1.0000000000000000e-03 9.9900000000000000e-01
1.0000000000000000e-03 9.9900000000000000e-01
1.0000000000000000e-03 9.9900000000000000e-01
ITEM: ATOMS id type xs ys zs 
1 1 0.64389 0.321627 0.443751 
2 1 0.23348 0.0324148 0.622183 
3 1 0.965165 0.349755 1.0109 
4 1 0.216875 0.809445 -0.0130726 
ITEM: TIMESTEP
3900
ITEM: NUMBER OF ATOMS
4
ITEM: BOX BOUNDS pp pp pp
1.0000000000000000e-03 9.9900000000000000e-01
1.0000000000000000e-03 9.9900000000000000e-01
1.0000000000000000e-03 9.9900000000000000e-01
ITEM: ATOMS id type xs ys zs 
1 1 0.18085 0.390413 0.213046 
2 1 0.708595 0.717554 0.787138 
3 1 0.686995 0.154061 0.268424 
4 1 0.482971 0.251214 0.795156 
ITEM: TIMESTEP
4000
ITEM: NUMBER OF ATOMS
4
ITEM: BOX BOUNDS pp pp pp
1.0000000000000000e-03 9.9900000000000000e-01
1.0000000000000000e-03 9.9900000000000000e-01
1.0000000000000000e-03 9.9900000000000000e-01
ITEM: ATOMS id type xs ys zs 
1 1 0.242151 0.0961022 0.0555538 
2 1 0.0716404 0.647368 0.699184 
3 1 0.137953 0.074532 0.82603 
4 1 0.607667 0.69524 0.482997 
ITEM: TIMESTEP
4100
ITEM: NUMBER OF ATOMS
4
ITEM: BOX BOUNDS pp pp pp
1.0000000000000000e-03 9.9900000000000000e-01
1.0000000000000000e-03 9.9900000000000000e-01
1.0000000000000000e-03 9.9900000000000000e-01
ITEM: ATOMS id type xs ys zs 
1 1 0.331019 0.944409 0.136091 
2 1 0.650797 0.899548 0.87279 
3 1 0.790052 0.620509 0.369108 
4 1 0.287542 0.0487763 0.685776 
ITEM: TIMESTEP
4200
ITEM: NUMBER OF ATOMS
4
ITEM: BOX BOUNDS pp pp pp
1.0000000000000000e-03 9.9900000000000000e-01
1.0000000000000000e-03 9.9900000000000000e-01
1.0000000000000000e-03 9.9900000000000000e-01
ITEM: ATOMS id type xs ys zs 
1 1 0.961109 0.346463 1.01 
2 1 -0.0776377 0.891245 0.654008 
3 1 0.646633 0.838364 0.934562 
4 1 0.529307 0.43717 0.465193 
ITEM: TIMESTEP
4300
ITEM: NUMBER OF ATOMS
4
ITEM: BOX BOUNDS pp pp pp
1.0000000000000000e-03 9.9900000000000000e-01
1.0000000000000000e-03 9.9900000000000000e-01
1.0000000000000000e-03 9.9900000000000000e-01
ITEM: ATOMS id type xs ys zs 
1 1 0.116045 0.392703 0.667324 
2 1 0.313382 0.740203 0.820554 
3 1 0.872553 0.42572 0.400634 
4 1 0.757431 0.954616 0.175252 
ITEM: TIMESTEP
4400
ITEM: NUMBER OF ATOMS
4
ITEM: BOX BOUNDS pp pp pp
1.0000000000000000e-03 9.9900000000000000e-01
1.0000000000000000e-03 9.9900000000000000e-01
1.0000000000000000e-03 9.9900000000000000e-01
ITEM: ATOMS id type xs ys zs 
1 1 0.167748 0.914683 0.191727 
2 1 0.527615 0.797497 0.9679 
3 1 0.805953 0.42658 0.187992 
4 1 0.558094 0.374483 0.716146 
ITEM: TIMESTEP
4500
ITEM: NUMBER OF ATOMS
4
ITEM: BOX BOUNDS pp pp pp
1.0000000000000000e-03 9.9900000000000000e-01
1.0000000000000000e-03 9.9900000000000000e-01
1.0000000000000000e-03 9.9900000000000000e-01
ITEM: ATOMS id type xs ys zs 
1 1 0.765111 0.291177 0.262767 
2 1 0.158878 0.374096 0.685461 
3 1 0.277309 0.98132 0.0752608 
4 1 0.858112 0.866648 1.04028 
ITEM: TIMESTEP
4600
ITEM: NUMBER OF ATOMS
4
ITEM: BOX BOUNDS pp pp pp
1.0000000000000000e-03 9.9900000000000000e-01
1.0000000000000000e-03 9.9900000000000000e-01
1.0000000000000000e-03 9.9900000000000000e-01
ITEM: ATOMS id type xs ys zs 
1 1 0.672044 0.403276 0.577503 
2 1 0.376189 0.669711 0.1459 
3 1 1.0097 0.942579 0.814739 
4 1 0.00147754 0.497676 0.525623 
ITEM: TIMESTEP
4700
ITEM: NUMBER OF ATOMS
4
ITEM: BOX BOUNDS pp pp pp
1.0000000000000000e-03 9.9900000000000000e-01
1.0000000000000000e-03 9.9900000000000000e-01
1.0000000000000000e-03 9.9900000000000000e-01
ITEM: ATOMS id type xs ys zs 
1 1 0.56914 0.0698793 0.177445 
2 1 0.105708 0.744747 0.949344 
3 1 1.04299 0.539765 0.22558 
4 1 0.341573 0.158851 0.711395 
ITEM: TIMESTEP
4800
ITEM: NUMBER OF ATOMS
4
ITEM: BOX BOUNDS pp pp pp
1.0000000000000000e-03 9.9900000000000000e-01
1.0000000000000000e-03 9.9900000000000000e-01
1.0000000000000000e-03 9.9900000000000000e-01
ITEM: ATOMS id type xs ys zs 
1 1 0.382169 0.309731 0.369494 
2 1 0.69922 0.114084 0.654943 
3 1 0.186317 0.543121 0.0342192 
4 1 0.791704 0.546306 0.00510909 
ITEM: TIMESTEP
4900
ITEM: NUMBER OF ATOMS
4
ITEM: BOX BOUNDS pp pp pp
1.0000000000000000e-03 9.9900000000000000e-01
1.0000000000000000e-03 9.9900000000000000e-01
1.0000000000000000e-03 9.9900000000000000e-01
ITEM: ATOMS id type xs ys zs 
1 1 0.154701 0.832613 0.48343 
2 1 0.624657 0.415824 0.205421 
3 1 0.387355 0.429906 0.140297 
4 1 0.892697 0.834898 0.234618 
ITEM: TIMESTEP
5000
ITEM: NUMBER OF ATOMS
4
ITEM: BOX BOUNDS pp pp pp
1.0000000000000000e-03 9.9900000000000000e-01
1.0000000000000000e-03 9.9900000000000000e-01
1.0000000000000000e-03 9.9900000000000000e-01
ITEM: ATOMS id type xs ys zs 
1 1 0.436023 0.464914 0.731922 
2 1 0.708681 0.697449 0.343055 
3 1 0.00168032 0.0369603 0.895692 
4 1 0.913026 0.313919 0.0930958 
ITEM: TIMESTEP
5100
ITEM: NUMBER OF ATOMS
4
ITEM: BOX BOUNDS pp pp pp
1.0000000000000000e-03 9.9900000000000000e-01
1.0000000000000000e-03 9.9900000000000000e-01
1.0000000000000000e-03 9.9900000000000000e-01
ITEM: ATOMS id type xs ys zs 
1 1 0.842214 0.82373 0.214716 
2 1 0.526344 0.318881 0.33974 
3 1 0.124449 0.979344 0.700479 
4 1 0.566404 0.391287 0.80883 
ITEM: TIMESTEP
5200
ITEM: NUMBER OF ATOMS
4
ITEM: BOX BOUNDS pp pp pp
1.0000000000000000e-03 9.9900000000000000e-01
1.0000000000000000e-03 9.9900000000000000e-01
1.0000000000000000e-03 9.9900000000000000e-01
ITEM: ATOMS id type xs ys zs 
1 1 0.945534 0.378266 0.970291 
2 1 0.474462 0.899473 0.360662 
3 1 0.10291 0.283942 0.932496 
4 1 0.536506 0.951562 0.800316 
ITEM: TIMESTEP
5300
ITEM: NUMBER OF ATOMS
4
ITEM: BOX BOUNDS pp pp pp
1.0000000000000000e-03 9.9900000000000000e-01
1.0000000000000000e-03 9.9900000000000000e-01
1.0000000000000000e-03 9.9900000000000000e-01
ITEM: ATOMS id type xs ys zs 
1 1 0.254308 0.826332 0.679691 
2 1 0.668914 0.448164 0.0798996 
3 1 0.0406727 0.993982 0.859741 
4 1 1.09552 0.244765 0.444434 
ITEM: TIMESTEP
5400
ITEM: NUMBER OF ATOMS
4
ITEM: BOX BOUNDS pp pp pp
1.0000000000000000e-03 9.9900000000000000e-01
1.0000000000000000e-03 9.9900000000000000e-01
1.0000000000000000e-03 9.9900000000000000e-01
ITEM: ATOMS id type xs ys zs 
1 1 0.80442 0.767471 0.587282 
2 1 0.192786 0.379843 0.47421 
3 1 0.42615 0.910868 0.846127 
4 1 0.636055 0.45506 0.156145 
ITEM: TIMESTEP
5500
ITEM: NUMBER OF ATOMS
4
ITEM: BOX BOUNDS pp pp pp
1.0000000000000000e-03 9.9900000000000000e-01
1.0000000000000000e-03 9.9900000000000000e-01
1.0000000000000000e-03 9.9900000000000000e-01
ITEM: ATOMS id type xs ys zs 
1 1 0.0726436 0.764204 0.239178 
2 1 0.16532 0.271528 0.342345 
3 1 0.214761 0.912444 0.688482 
4 1 0.606687 0.565067 0.79376 
ITEM: TIMESTEP
5600
ITEM: NUMBER OF ATOMS
4
ITEM: BOX BOUNDS pp pp pp
1.0000000000000000e-03 9.9900000000000000e-01
1.0000000000000000e-03 9.9900000000000000e-01
1.0000000000000000e-03 9.9900000000000000e-01
ITEM: ATOMS id type xs ys zs 
1 1 0.151851 0.215935 0.35724 
2 1 0.224155 0.536262 0.211317 
3 1 0.00541914 0.955085 0.928131 
4 1 0.677985 0.805961 0.567077 
ITEM: TIMESTEP
5700
ITEM: NUMBER OF ATOMS
4
ITEM: BOX BOUNDS pp pp pp
1.0000000000000000e-03 9.9900000000000000e-01
1.0000000000000000e-03 9.9900000000000000e-01
1.0000000000000000e-03 9.9900000000000000e-01
ITEM: ATOMS id type xs ys zs 
1 1 0.959077 0.0906241 0.541605 
2 1 0.31334 0.798641 0.884885 
3 1 0.657846 0.331409 0.641291 
4 1 0.129148 0.292569 0.995983 
ITEM: TIMESTEP
5800
ITEM: NUMBER OF ATOMS
4
ITEM: BOX BOUNDS pp pp pp
1.0000000000000000e-03 9.9900000000000000e-01
1.0000000000000000e-03 9.9900000000000000e-01
1.0000000000000000e-03 9.9900000000000000e-01
ITEM: ATOMS id type xs ys zs 
1 1 0.423461 0.311743 0.418797 
2 1 0.520175 0.862745 0.878733 
3 1 0.00139633 0.758925 0.23105 
4 1 0.114378 0.57983 0.535185 
ITEM: TIMESTEP
5900
ITEM: NUMBER OF ATOMS
4
ITEM: BOX BOUNDS pp pp pp
1.0000000000000000e-03 9.9900000000000000e-01
1.0000000000000000e-03 9.9900000000000000e-01
1.0000000000000000e-03 9.9900000000000000e-01
ITEM: ATOMS id type xs ys zs 
1 1 0.719447 0.362695 0.020467 
2 1 0.198865 0.078306 0.952627 
3 1 0.815554 0.197973 0.451877 
4 1 0.325544 0.874268 0.638794 
ITEM: TIMESTEP
6000
ITEM: NUMBER OF ATOMS
4
ITEM: BOX BOUNDS pp pp pp
1.0000000000000000e-03 9.9900000000000000e-01
1.0000000000000000e-03 9.9900000000000000e-01
1.0000000000000000e-03 9.9900000000000000e-01
ITEM: ATOMS id type xs ys zs 
1 1 0.918149 0.872001 0.281631 
2 1 0.706631 0.538835 0.703878 
3 1 0.337676 0.17808 0.825881 
4 1 0.0969552 0.924327 0.252376 
ITEM: TIMESTEP
6100
ITEM: NUMBER OF ATOMS
4
ITEM: BOX BOUNDS pp pp pp
1.0000000000000000e-03 9.9900000000000000e-01
1.0000000000000000e-03 9.9900000000000000e-01
1.0000000000000000e-03 9.9900000000000000e-01
ITEM: ATOMS id type xs ys zs 
1 1 1.04667 0.227087 0.062916 
2 1 0.910812 0.495275 0.436415 
3 1 0.423947 0.723839 0.0781393 
4 1 0.677982 0.0670415 0.486295 
ITEM: TIMESTEP
6200
ITEM: NUMBER OF ATOMS
4
ITEM: BOX BOUNDS pp pp pp
1.0000000000000000e-03 9.9900000000000000e-01
1.0000000000000000e-03 9.9900000000000000e-01
1.0000000000000000e-03 9.9900000000000000e-01
ITEM: ATOMS id type xs ys zs 
1 1 0.0889006 0.198472 0.119334 
2 1 0.978939 0.871404 0.541242 
3 1 0.687475 0.890577 1.03542 
4 1 0.304096 0.55279 0.367763 
ITEM: TIMESTEP
6300
ITEM: NUMBER OF ATOMS
4
ITEM: BOX BOUNDS pp pp pp
1.0000000000000000e-03 9.9900000000000000e-01
1.0000000000000000e-03 9.9900000000000000e-01
1.0000000000000000e-03 9.9900000000000000e-01
ITEM: ATOMS id type xs ys zs 
1 1 0.174356 0.565961 0.777039 
2 1 0.891946 0.753007 0.808937 
3 1 0.432362 0.151012 0.208825 
4 1 0.560747 0.0432625 0.268964 
ITEM: TIMESTEP
6400
ITEM: NUMBER OF ATOMS
4
ITEM: BOX BOUNDS pp pp pp
1.0000000000000000e-03 9.9900000000000000e-01
1.0000000000000000e-03 9.9900000000000000e-01
1.0000000000000000e-03 9.9900000000000000e-01
ITEM: ATOMS id type xs ys zs 
1 1 0.212801 0.232919 0.183608 
2 1 0.317524 0.836458 0.357602 
3 1 -0.0146273 0.438675 0.823675 
4 1 0.543713 1.00519 0.69888 
ITEM: TIMESTEP
6500
ITEM: NUMBER OF ATOMS
4
ITEM: BOX BOUNDS pp pp pp
1.0000000000000000e-03 9.9900000000000000e-01
1.0000000000000000e-03 9.9900000000000000e-01
1.0000000000000000e-03 9.9900000000000000e-01
ITEM: ATOMS id type xs ys zs 
1 1 0.491366 0.0407703 0.174882 
2 1 0.0370306 0.146181 0.517992 
3 1 0.597484 0.610307 0.960247 
4 1 0.933531 0.715984 0.410644 
ITEM: TIMESTEP
6600
ITEM: NUMBER OF ATOMS
4
ITEM: BOX BOUNDS pp pp pp
1.0000000000000000e-03 9.9900000000000000e-01
1.0000000000000000e-03 9.9900000000000000e-01
1.0000000000000000e-03 9.9900000000000000e-01
ITEM: ATOMS id type xs ys zs 
1 1 0.615332 0.657614 0.295438 
2 1 0.309064 0.0315954 0.861189 
3 1 0.22164 0.147407 0.203949 
4 1 0.913375 0.676626 0.703189 
ITEM: TIMESTEP
6700
ITEM: NUMBER OF ATOMS
4
ITEM: BOX BOUNDS pp pp pp
1.0000000000000000e-03 9.9900000000000000e-01
1.0000000000000000e-03 9.9900000000000000e-01
1.0000000000000000e-03 9.9900000000000000e-01
ITEM: ATOMS id type xs ys zs 
1 1 0.844359 0.0810528 0.552923 
2 1 0.713973 0.500258 0.475895 
3 1 0.201184 0.137426 0.871392 
4 1 0.299895 0.794506 0.163555 
ITEM: TIMESTEP
6800
ITEM: NUMBER OF ATOMS
4
ITEM: BOX BOUNDS pp pp pp
1.0000000000000000e-03 9.9900000000000000e-01
1.0000000000000000e-03 9.9900000000000000e-01
1.0000000000000000e-03 9.9900000000000000e-01
ITEM: ATOMS id type xs ys zs 
1 1 0.474554 0.00992522 0.14847 
2 1 0.253436 0.870853 0.908298 
3 1 0.985242 0.510809 0.52767 
4 1 0.346178 0.121655 0.479327 
ITEM: TIMESTEP
6900
ITEM: NUMBER OF ATOMS
4
ITEM: BOX BOUNDS pp pp pp
1.0000000000000000e-03 9.9900000000000000e-01
1.0000000000000000e-03 9.9900000000000000e-01
1.0000000000000000e-03 9.9900000000000000e-01
ITEM: ATOMS id type xs ys zs 
1 1 0.082412 0.424526 0.0897728 
2 1 0.613868 0.930514 0.368462 
3 1 0.85953 0.238351 0.877547 
4 1 0.503601 0.919851 0.727983 
ITEM: TIMESTEP
7000
ITEM: NUMBER OF ATOMS
4
ITEM: BOX BOUNDS pp pp pp
1.0000000000000000e-03 9.9900000000000000e-01
1.0000000000000000e-03 9.9900000000000000e-01
1.0000000000000000e-03 9.9900000000000000e-01
ITEM: ATOMS id type xs ys zs 
1 1 0.8075 0.731733 0.526461 
2 1 0.617264 0.545976 0.124651 
3 1 0.460496 0.0551705 0.675137 
4 1 0.174151 0.180363 0.737517 
ITEM: TIMESTEP
7100
ITEM: NUMBER OF ATOMS
4
ITEM: BOX BOUNDS pp pp pp
1.0000000000000000e-03 9.9900000000000000e-01
1.0000000000000000e-03 9.9900000000000000e-01
1.0000000000000000e-03 9.9900000000000000e-01
ITEM: ATOMS id type xs ys zs 
1 1 0.281711 0.618086 1.03313 
2 1 0.653253 0.26409 0.96728 
3 1 0.316993 0.691639 0.61778 
4 1 0.807453 0.939428 0.445571 
ITEM: TIMESTEP
7200
ITEM: NUMBER OF ATOMS
4
ITEM: BOX BOUNDS pp pp pp
1.0000000000000000e-03 9.9900000000000000e-01
1.0000000000000000e-03 9.9900000000000000e-01
1.0000000000000000e-03 9.9900000000000000e-01
ITEM: ATOMS id type xs ys zs 
1 1 0.617191 0.395061 0.0850803 
2 1 0.070985 0.0442382 0.304868 
3 1 0.986089 0.647408 0.873643 
4 1 0.385146 0.426535 0.800174 
ITEM: TIMESTEP
7300
ITEM: NUMBER OF ATOMS
4
ITEM: BOX BOUNDS pp pp pp
1.0000000000000000e-03 9.9900000000000000e-01
1.0000000000000000e-03 9.9900000000000000e-01
1.0000000000000000e-03 9.9900000000000000e-01
ITEM: ATOMS id type xs ys zs 
1 1 0.0847014 0.722913 0.917759 
2 1 0.694806 0.283464 0.542184 
3 1 0.49799 0.772068 0.550365 
4 1 0.781913 0.734798 0.0534574 
ITEM: TIMESTEP
7400
ITEM: NUMBER OF ATOMS
4
ITEM: BOX BOUNDS pp pp pp
1.0000000000000000e-03 9.9900000000000000e-01
1.0000000000000000e-03 9.9900000000000000e-01
1.0000000000000000e-03 9.9900000000000000e-01
ITEM: ATOMS id type xs ys zs 
1 1 0.581694 0.327894 0.722974 
2 1 0.0955275 0.863178 0.348897 
3 1 0.96694 0.81157 0.814743 
4 1 0.415249 0.5106 0.177151 
ITEM: TIMESTEP
7500
ITEM: NUMBER OF ATOMS
4
ITEM: BOX BOUNDS pp pp pp
1.0000000000000000e-03 9.9900000000000000e-01
1.0000000000000000e-03 9.9900000000000000e-01
1.0000000000000000e-03 9.9900000000000000e-01
ITEM: ATOMS id type xs ys zs 
1 1 0.624093 0.701393 0.939798 
2 1 0.276547 0.249003 0.327227 
3 1 0.217223 0.892686 0.534053 
4 1 0.941547 0.67016 0.262687 
ITEM: TIMESTEP
7600
ITEM: NUMBER OF ATOMS
4
ITEM: BOX BOUNDS pp pp pp
1.0000000000000000e-03 9.9900000000000000e-01
1.0000000000000000e-03 9.9900000000000000e-01
1.0000000000000000e-03 9.9900000000000000e-01
ITEM: ATOMS id type xs ys zs 
1 1 0.356068 0.968872 0.957747 
2 1 0.896771 0.417804 0.191851 
3 1 0.634263 0.867245 0.555243 
4 1 0.172309 0.259322 0.358923 
ITEM: TIMESTEP
7700
ITEM: NUMBER OF ATOMS
4
ITEM: BOX BOUNDS pp pp pp
1.0000000000000000e-03 9.9900000000000000e-01
1.0000000000000000e-03 9.9900000000000000e-01
1.0000000000000000e-03 9.9900000000000000e-01
ITEM: ATOMS id type xs ys zs 
1 1 0.0259033 0.170833 0.291109 
2 1 0.396623 0.66536 0.684882 
3 1 0.142825 0.785654 0.819789 
4 1 0.494059 0.891396 0.267985 
ITEM: TIMESTEP
7800
ITEM: NUMBER OF ATOMS
4
ITEM: BOX BOUNDS pp pp pp
1.0000000000000000e-03 9.9900000000000000e-01
1.0000000000000000e-03 9.9900000000000000e-01
1.0000000000000000e-03 9.9900000000000000e-01
ITEM: ATOMS id type xs ys zs 
1 1 0.133104 0.113857 0.378328 
2 1 0.278681 0.635638 0.18428 
3 1 0.62956 0.576436 0.853137 
4 1 0.0180662 0.187312 0.64802 
ITEM: TIMESTEP
7900
ITEM: NUMBER OF ATOMS
4
ITEM: BOX BOUNDS pp pp pp
1.0000000000000000e-03 9.9900000000000000e-01
1.0000000000000000e-03 9.9900000000000000e-01
1.0000000000000000e-03 9.9900000000000000e-01
ITEM: ATOMS id type xs ys zs 
1 1 0.187351 0.513628 0.393434 
2 1 0.672878 0.163054 0.854286 
3 1 0.273192 0.107512 0.753326 
4 1 0.92599 0.729047 0.0627187 
ITEM: TIMESTEP
8000
ITEM: NUMBER OF ATOMS
4
ITEM: BOX BOUNDS pp pp pp
1.0000000000000000e-03 9.9900000000000000e-01
1.0000000000000000e-03 9.9900000000000000e-01
1.0000000000000000e-03 9.9900000000000000e-01
ITEM: ATOMS id type xs ys zs 
1 1 0.467851 0.361526 0.540777 
2 1 0.359337 0.673319 0.192559 
3 1 0.32309 -0.00647114 0.457102 
4 1 0.909132 0.484868 0.873326 
ITEM: TIMESTEP
8100
ITEM: NUMBER OF ATOMS
4
ITEM: BOX BOUNDS pp pp pp
1.0000000000000000e-03 9.9900000000000000e-01
1.0000000000000000e-03 9.9900000000000000e-01
1.0000000000000000e-03 9.9900000000000000e-01
ITEM: ATOMS id type xs ys zs 
1 1 0.654495 0.301134 0.463431 
2 1 0.39759 0.311295 0.195072 
3 1 0.875822 0.859921 0.888169 
4 1 0.131503 0.0408925 0.517094 
ITEM: TIMESTEP
8200
ITEM: NUMBER OF ATOMS
4
ITEM: BOX BOUNDS pp pp pp
1.0000000000000000e-03 9.9900000000000000e-01
1.0000000000000000e-03 9.9900000000000000e-01
1.0000000000000000e-03 9.9900000000000000e-01
ITEM: ATOMS id type xs ys zs 
1 1 0.757522 0.48499 0.669214 
2 1 0.256781 0.319898 0.408042 
3 1 0.650477 0.933101 0.660833 
4 1 0.39463 0.775253 0.325676 
ITEM: TIMESTEP
8300
ITEM: NUMBER OF ATOMS
4
ITEM: BOX BOUNDS pp pp pp
1.0000000000000000e-03 9.9900000000000000e-01
1.0000000000000000e-03 9.9900000000000000e-01
1.0000000000000000e-03 9.9900000000000000e-01
ITEM: ATOMS id type xs ys zs 
1 1 0.164243 0.12601 0.842057 
2 1 0.634363 0.410945 0.126045 
3 1 0.520761 0.832514 0.65144 
4 1 0.740043 0.143774 0.444224 
ITEM: TIMESTEP
8400
ITEM: NUMBER OF ATOMS
4
ITEM: BOX BOUNDS pp pp pp
1.0000000000000000e-03 9.9900000000000000e-01
1.0000000000000000e-03 9.9900000000000000e-01
1.0000000000000000e-03 9.9900000000000000e-01
ITEM: ATOMS id type xs ys zs 
1 1 0.123889 0.17653 0.205911 
2 1 0.386352 0.649073 0.225488 
3 1 0.928481 0.477568 0.873621 
4 1 0.620688 0.210072 0.758746 
ITEM: TIMESTEP
8500
ITEM: NUMBER OF ATOMS
4
ITEM: BOX BOUNDS pp pp pp
1.0000000000000000e-03 9.9900000000000000e-01
1.0000000000000000e-03 9.9900000000000000e-01
1.0000000000000000e-03 9.9900000000000000e-01
ITEM: ATOMS id type xs ys zs 
1 1 0.86508 0.550203 0.871686 
2 1 0.464386 0.265978 0.758872 
3 1 0.644958 -0.00688236 0.18173 
4 1 0.0849864 0.703944 0.251476 
ITEM: TIMESTEP
8600
ITEM: NUMBER OF ATOMS
4
ITEM: BOX BOUNDS pp pp pp
1.0000000000000000e-03 9.9900000000000000e-01
1.0000000000000000e-03 9.9900000000000000e-01
1.0000000000000000e-03 9.9900000000000000e-01
ITEM: ATOMS id type xs ys zs 
1 1 0.510462 0.738383 0.630395 
2 1 0.916404 0.375265 0.880977 
3 1 0.301997 0.113468 0.350661 
4 1 0.330548 0.286127 0.201731 
ITEM: TIMESTEP
8700
ITEM: NUMBER OF ATOMS
4
ITEM: BOX BOUNDS pp pp pp
1.0000000000000000e-03 9.9900000000000000e-01
1.0000000000000000e-03 9.9900000000000000e-01
1.0000000000000000e-03 9.9900000000000000e-01
ITEM: ATOMS id type xs ys zs 
1 1 0.511124 0.174837 0.710359 
2 1 0.947985 0.0467625 0.218405 
3 1 0.326201 0.650004 0.305588 
4 1 0.2741 0.641639 0.829413 
ITEM: TIMESTEP
8800
ITEM: NUMBER OF ATOMS
4
ITEM: BOX BOUNDS pp pp pp
1.0000000000000000e-03 9.9900000000000000e-01
1.0000000000000000e-03 9.9900000000000000e-01
1.0000000000000000e-03 9.9900000000000000e-01
ITEM: ATOMS id type xs ys zs 
1 1 0.859778 0.193374 0.195213 
2 1 0.311202 0.797467 0.232674 
3 1 0.21305 0.515555 0.970041 
4 1 0.675382 0.00684582 0.665837 
ITEM: TIMESTEP
8900
ITEM: NUMBER OF ATOMS
4
ITEM: BOX BOUNDS pp pp pp
1.0000000000000000e-03 9.9900000000000000e-01
1.0000000000000000e-03 9.9900000000000000e-01
1.0000000000000000e-03 9.9900000000000000e-01
ITEM: ATOMS id type xs ys zs 
1 1 0.584418 0.555473 0.619484 
2 1 0.230952 0.83871 0.805821 
3 1 0.471956 0.0262749 0.480494 
4 1 0.772085 0.0927836 0.157966 
ITEM: TIMESTEP
9000
ITEM: NUMBER OF ATOMS
4
ITEM: BOX BOUNDS pp pp pp
1.0000000000000000e-03 9.9900000000000000e-01
1.0000000000000000e-03 9.9900000000000000e-01
1.0000000000000000e-03 9.9900000000000000e-01
ITEM: ATOMS id type xs ys zs 
1 1 0.595492 0.751582 0.38728 
2 1 0.877697 0.73724 0.0936351 
3 1 0.349831 0.303493 0.942597 
4 1 0.236391 0.720927 0.640254 
ITEM: TIMESTEP
9100
ITEM: NUMBER OF ATOMS
4
ITEM: BOX BOUNDS pp pp pp
1.0000000000000000e-03 9.9900000000000000e-01
1.0000000000000000e-03 9.9900000000000000e-01
1.0000000000000000e-03 9.9900000000000000e-01
ITEM: ATOMS id type xs ys zs 
1 1 0.446593 0.926733 0.450163 
2 1 0.959605 0.779539 0.0915001 
3 1 0.0589749 0.62236 0.547263 